LAMMPS (7 Aug 2019)
Reading data file ...
  orthogonal box = (-20 -20 -20) to (20 20 20)
  1 by 1 by 1 MPI processor grid
  reading atoms ...
  8 atoms
  read_data CPU = 0.00469089 secs
Summary of lammps deepmd module ...
  >>> Info of deepmd-kit:
  installed to:       /home/mandrade/deepmd_new
  source:             v1.1.4-dirty
  source brach:       HEAD
  source commit:      07c42c1
  source commit at:   2020-02-01 19:02:21 +0800
  build float prec:   double
  build with tf inc:  /home/mandrade/gnu_openmp_libs/include
  build with tf lib:  /home/mandrade/gnu_openmp_libs/lib/libtensorflow_cc.so;/home/mandrade/gnu_openmp_libs/lib/libtensorflow_framework.so
  set tf intra_op_parallelism_threads: 4
  set tf inter_op_parallelism_threads: 0
  >>> Info of lammps module:
  use deepmd-kit at:  /home/mandrade/deepmd_new
  source:             v1.1.4-dirty
  source branch:      master
  source commit:      07c42c1
  source commit at:   2020-02-01 19:02:21 +0800
  build float prec:   double
  build with tf inc:  /home/mandrade/gnu_libs/include
  build with tf lib:  /home/mandrade/gnu_libs/lib/libtensorflow_cc.so;/home/mandrade/gnu_libs/lib/libtensorflow_framework.so
  >>> Info of model(s):
  using   3 model(s): ./graph1.pb ./graph2.pb ./graph3.pb 
  rcut in model:      5
  ntypes in model:    2
New timer settings: style=normal  mode=nosync  timeout=01:00:00
Neighbor list info ...
  update every 1 steps, delay 10 steps, check yes
  max neighbors/atom: 2000, page size: 100000
  master list distance cutoff = 7
  ghost atom cutoff = 7
  binsize = 3.5, bins = 12 12 12
  1 neighbor lists, perpetual/occasional/extra = 1 0 0
  (1) pair deepmd, perpetual
      attributes: , newton on
      pair build: full/bin/atomonly
      stencil: full/bin/3d
      bin: standard
Setting up Verlet run ...
  Unit style    : metal
  Current step  : 0
  Time step     : 0.0005
  Walltime left : 0:59:59.99
Per MPI rank memory allocation (min/avg/max) = 3.701 | 3.701 | 3.701 Mbytes
Step Temp PotEng TotEng Press 
       0          300   -406.91312   -406.64168    18.426822 
     100    137.78172   -406.74438   -406.61971   -55.683496 
     200    232.73563   -406.76984   -406.55926    52.702362 
     300    210.14496   -406.66988   -406.47974   -36.819473 
     400    203.83295   -406.61613    -406.4317 -0.055059194 
     500    58.524115   -406.44481   -406.39185    54.741159 
     600    141.46386   -406.48728   -406.35928   -25.977252 
     700    325.29214   -406.62874   -406.33441    -1.415629 
     800    475.64051   -406.73726   -406.30689    52.756173 
     900    210.39877   -406.48324   -406.29287   -84.177589 
    1000     478.0142   -406.73505   -406.30253    48.741421 
    1100    350.97797   -406.67619   -406.35862    -35.38858 
    1200    324.03135   -406.73308   -406.43989   -22.401498 
    1300    296.44351    -406.7818   -406.51357    24.683964 
    1400    134.84766   -406.66546   -406.54345   -34.886437 
    1500    225.88433   -406.74762   -406.54324    31.296441 
    1600        254.1   -406.73884   -406.50892   0.74904689 
    1700    221.17485   -406.61964   -406.41951   -15.138988 
    1800    321.44987   -406.59983   -406.30898    78.872369 
    1900    220.51994   -406.46056   -406.26103   -47.567601 
    2000    414.20744   -406.64102   -406.26624    43.924648 
    2100    395.83163   -406.65114   -406.29298    18.554811 
    2200    201.66669   -406.52198   -406.33951   -42.679431 
    2300    318.34198   -406.68762   -406.39958    35.476348 
    2400    384.30585   -406.79752   -406.44979    -20.89574 
    2500    307.80408   -406.76419   -406.48568   -31.666427 
    2600    360.68299   -406.84045   -406.51409    25.684678 
    2700    176.09859   -406.69519   -406.53585   -33.780342 
    2800    282.33479   -406.80304   -406.54758    5.5133481 
    2900    154.19796   -406.67608   -406.53656    17.443196 
    3000    122.19051    -406.5942   -406.48364   -28.778415 
    3100    176.15363   -406.55742   -406.39804     59.22924 
    3200     192.7717   -406.49154   -406.31711   -37.684733 
    3300    239.28051   -406.48065   -406.26415    31.114494 
    3400    412.09054   -406.62716   -406.25429    4.9672584 
    3500    303.27083   -406.55056   -406.27615    -29.19483 
    3600     500.6442    -406.7939    -406.3409    -5.520235 
    3700    334.30523   -406.73599    -406.4335    1.6298552 
    3800     256.8352   -406.74532   -406.51293   -31.716957 
    3900    221.29244   -406.74897   -406.54874     15.66262 
    4000    201.37136   -406.72936   -406.54715   -6.1849437 
    4100     169.0213   -406.67747   -406.52453    3.3867958 
    4200    179.44301   -406.65613   -406.49376    11.839055 
    4300    167.59855    -406.6176   -406.46595    28.046454 
    4400    290.69224   -406.69062   -406.42759   -13.571154 
    4500    270.14137   -406.63217   -406.38774    42.619568 
    4600     285.9676   -406.60826   -406.34952   -16.366837 
    4700    336.73472   -406.62184   -406.31716    16.285039 
    4800    370.63921   -406.63758   -406.30221   -7.5138128 
    4900    350.48733   -406.60941   -406.29228   -4.6887325 
    5000    482.94684    -406.7453   -406.30831   -15.921889 
    5100    339.31205   -406.66681    -406.3598   -6.2869607 
    5200    362.94631   -406.76276   -406.43436   -27.302948 
    5300    357.19981   -406.80707   -406.48387    11.312871 
    5400    272.27235   -406.76167   -406.51532   -23.067663 
    5500    196.85199   -406.69563   -406.51751    3.1235215 
    5600    214.73679   -406.68985   -406.49555    19.535636 
    5700    171.27341   -406.57856   -406.42359   -26.704603 
    5800    234.74607   -406.53145   -406.31905    52.190297 
    5900    206.23104   -406.43504   -406.24843   -17.523704 
    6000    279.62714   -406.48846   -406.23545    10.521421 
    6100     315.3518   -406.54392   -406.25858    3.7633495 
    6200    409.87162   -406.67416    -406.3033   -10.408369 
    6300    406.56013    -406.7223   -406.35443   -18.018949 
    6400    409.39146   -406.76025   -406.38983  -0.80461209 
    6500    297.80968   -406.67691   -406.40745    -29.64907 
    6600    404.51522   -406.77744   -406.41143    13.822622 
    6700    272.99226   -406.65262   -406.40561   -28.531283 
    6800    242.28833   -406.61865   -406.39943    24.061795 
    6900    190.36843   -406.56728   -406.39503    6.1155248 
    7000    263.73653   -406.62851   -406.38988    2.1868758 
    7100    219.93651   -406.57693   -406.37792    30.575926 
    7200     283.6069   -406.62422    -406.3676    10.766098 
    7300    231.18555   -406.54885   -406.33967    2.4517257 
    7400    321.45478   -406.59992   -406.30906    33.551384 
    7500    333.29037   -406.56284   -406.26127   -15.932118 
    7600    522.84089   -406.68499   -406.21192    11.177347 
    7700    371.10615    -406.5383   -406.20251   -4.0473508 
    7800    374.71338   -406.59271   -406.25366   -21.670999 
    7900     448.4316   -406.76021   -406.35446    3.8831937 
    8000    411.05389   -406.81072   -406.43879   -27.257218 
    8100     265.1129   -406.72285   -406.48297   -5.3519836 
    8200    252.27577   -406.72697   -406.49871     4.609527 
    8300    184.23752   -406.65693   -406.49023    -14.41421 
    8400    262.93647    -406.6863   -406.44839    12.442677 
    8500    152.32888   -406.49382   -406.35599    19.019478 
    8600     178.9393   -406.37533   -406.21342   -16.263368 
    8700    275.69068   -406.38975    -406.1403    49.705704 
    8800    427.98564   -406.55513   -406.16788   -13.251796 
    8900    288.13132   -406.48854   -406.22784   -2.2690951 
    9000    337.66471   -406.60133    -406.2958    -1.240036 
    9100     256.9945   -406.59942   -406.36688    7.8042615 
    9200    348.90488   -406.73089   -406.41519   -41.595568 
    9300    318.22048   -406.74031   -406.45238    21.448638 
    9400    258.40377   -406.70054   -406.46673   -27.145211 
    9500    317.89317   -406.75379   -406.46615   0.48908073 
    9600    330.62013   -406.71929   -406.42014    8.8624356 
    9700    272.90886   -406.54882   -406.30189   -6.5238908 
    9800    437.45894   -406.55925   -406.16343    20.435912 
    9900    292.80097   -406.38685   -406.12191    26.900075 
   10000    329.06866   -406.46562   -406.16787   -10.446913 
   10100    284.66586   -406.52567    -406.2681    62.944528 
   10200    289.48316   -406.62102   -406.35909   -28.764008 
   10300    236.52506   -406.62189   -406.40787    26.360882 
   10400    366.65923   -406.75867   -406.42691    17.924173 
   10500    278.79212   -406.68278   -406.43053   -40.184677 
   10600    381.54948    -406.7634   -406.41817    24.617361 
   10700    323.95397    -406.6917   -406.39858    -19.66967 
   10800    347.98815   -406.67427    -406.3594   -24.060336 
   10900    474.62576   -406.68595    -406.2565    1.9052057 
   11000    520.97829   -406.56778   -406.09639   -6.6621235 
   11100    437.53834   -406.39712   -406.00122   -29.543985 
   11200    479.57519    -406.4998   -406.06587    29.869355 
   11300    348.36387    -406.5226   -406.20739     -16.5283 
   11400    358.33982   -406.62834    -406.3041    30.336611 
   11500    198.79643    -406.5259   -406.34603   -18.610048 
   11600    182.08157   -406.54131   -406.37656    30.279787 
   11700    230.59208   -406.61127   -406.40263    2.3531519 
   11800    297.30383   -406.68971    -406.4207   -12.985796 
   11900     272.2796   -406.68085   -406.43448    9.4920698 
   12000    328.37288   -406.73812     -406.441   -3.7560731 
   12100     262.3443   -406.66618   -406.42881    -35.19424 
   12200    386.01615   -406.74875   -406.39947    28.191704 
   12300     363.0667   -406.65705   -406.32854     -43.7323 
   12400    494.80179   -406.69391    -406.2462    3.1857359 
   12500    340.84408   -406.49633   -406.18792    22.306059 
   12600     376.7219   -406.52349   -406.18263   -31.102428 
   12700    371.03247   -406.58903   -406.25332    40.672653 
   12800    271.52961   -406.63391   -406.38823   -2.9786977 
   12900    152.48064   -406.60874   -406.47078    11.304164 
   13000    224.12628   -406.69486   -406.49207    30.408467 
   13100    132.09842   -406.60508   -406.48555   -16.452927 
   13200    291.23372    -406.7281   -406.46458    29.045568 
   13300    360.85847   -406.75377   -406.42725   -3.0453029 
   13400    285.97951   -406.62856    -406.3698   -31.065086 
   13500    394.01265   -406.66071    -406.3042    35.996395 
   13600    534.54232   -406.74068   -406.25702   -55.113716 
   13700    410.85005   -406.59995   -406.22821   -7.3817994 
   13800    474.01019   -406.64997   -406.22108    11.151431 
   13900    300.15772   -406.55796   -406.28637   -31.851719 
   14000     398.3357   -406.74849   -406.38806    8.4078373 
   14100    209.58861   -406.65122   -406.46158    11.494748 
   14200    152.32762   -406.64347   -406.50564   -18.030029 
   14300    127.72249   -406.63012   -406.51456    38.978955 
   14400    124.90768   -406.61445   -406.50143   -30.439624 
   14500    210.22896   -406.64559   -406.45537    32.951388 
   14600    392.68994   -406.71977   -406.36446   -25.867915 
   14700    265.26863   -406.51674   -406.27672   -9.7550471 
   14800    489.77482   -406.68158   -406.23842    16.332424 
   14900    365.61164   -406.57539   -406.24457    -43.02827 
   15000    514.02723   -406.74633   -406.28123   -7.5641215 
   15100    429.99792    -406.7158   -406.32673    17.094639 
   15200    246.67671    -406.5837   -406.36051   -44.614108 
   15300    299.73996    -406.6585   -406.38729    40.933371 
   15400    366.36864   -406.72751   -406.39601    2.7660511 
   15500     148.1345   -406.52952   -406.39549   -5.3014884 
   15600    194.02379   -406.56666    -406.3911    45.298986 
   15700    224.84471   -406.59479   -406.39134    3.0797311 
   15800    358.01942   -406.70156   -406.37762   -8.7049375 
   15900    388.56466   -406.70591   -406.35433    35.703383 
   16000    322.02014   -406.58365   -406.29228   -39.687212 
   16100    551.70117   -406.69982   -406.20063    24.271029 
   16200    595.00276   -406.66059   -406.12222   -31.849409 
   16300    537.38631   -406.60609   -406.11985   -30.677389 
   16400    645.08572   -406.80566   -406.22198    18.958805 
   16500    269.79895   -406.60144   -406.35732   -59.030975 
   16600    361.58916   -406.75154   -406.42437    24.112984 
   16700    266.37446   -406.69156   -406.45054   -12.119039 
   16800    259.34217   -406.68755    -406.4529   -18.085968 
   16900    186.96379   -406.61094   -406.44177    31.626135 
   17000    152.02405   -406.54721   -406.40966   -8.6559869 
   17100    201.35153   -406.53301   -406.35082    10.736945 
   17200    333.56708   -406.53933   -406.23751     24.63518 
   17300    153.91069   -406.25838   -406.11912   -17.469795 
   17400     343.8492   -406.38321   -406.07209    59.943703 
   17500    366.15195   -406.47661   -406.14531    -29.35014 
   17600     347.5947   -406.64653   -406.33202   -12.225426 
   17700    349.36852   -406.74906   -406.43294    31.231772 
   17800    224.66584    -406.6525   -406.44921   -47.395745 
   17900    359.58221   -406.77272   -406.44737    3.2368898 
   18000    404.70831   -406.78976   -406.42357    9.0711877 
   18100    257.11628    -406.6192   -406.38656   -46.976665 
   18200     423.3188   -406.72162    -406.3386    44.064453 
   18300     218.8799   -406.47871   -406.28067   -19.937078 
   18400    462.59346   -406.65794   -406.23937    17.908355 
   18500     449.8066   -406.63404   -406.22704    19.712703 
   18600    230.23392   -406.48319   -406.27487   -16.457461 
   18700    209.73624   -406.57941   -406.38964    66.728729 
   18800    185.87369   -406.65529    -406.4871   -30.281763 
   18900    207.07644   -406.71007    -406.5227    21.482127 
   19000    259.14394   -406.75813   -406.52365    20.372967 
   19100    162.85703   -406.64341   -406.49606   -37.206628 
   19200    351.86508   -406.75746   -406.43908    25.673488 
   19300    371.17271    -406.7051   -406.36925    -11.63399 
   19400    384.49475     -406.666   -406.31811   -44.019079 
   19500    483.66573   -406.73685   -406.29922    40.769406 
   19600    187.11421   -406.47509   -406.30579   -46.958834 
   19700    329.52747   -406.61964   -406.32148    28.792108 
   19800    346.42094   -406.66271   -406.34926  -0.94291655 
   19900    149.11413   -406.51718   -406.38226   -25.964423 
   20000    128.93933    -406.5237   -406.40704    60.848367 
   20100    186.11589   -406.60061    -406.4322   -24.844649 
   20200    263.63472   -406.70238   -406.46384   -8.7542697 
   20300    251.01727   -406.72485   -406.49773    47.810915 
   20400    138.05518   -406.65915   -406.53423   -63.897611 
   20500    279.98953   -406.81076   -406.55742    32.143428 
   20600    247.44279   -406.77199    -406.5481   -20.655443 
   20700    289.16415   -406.75411   -406.49247   -16.607978 
   20800    372.54953   -406.72954   -406.39245    13.842788 
   20900    200.49375   -406.49132   -406.30991   -19.015708 
   21000    414.32076   -406.65156   -406.27668    27.479448 
   21100    378.56025   -406.62102   -406.27849   -2.4322737 
   21200    312.55776   -406.58787   -406.30506   -6.9674212 
   21300    263.56219   -406.59195   -406.35347    63.258895 
   21400    160.77562   -406.57573   -406.43026   -32.200887 
   21500    231.18931   -406.72329    -406.5141    31.098852 
   21600    232.82933   -406.79078   -406.58011    11.906156 
   21700    161.78656   -406.75271   -406.60632    -31.75161 
   21800    253.13306   -406.82658   -406.59754    30.336811 
   21900    221.39869   -406.73863    -406.5383   -32.735576 
   22000    392.65872   -406.78535   -406.43006   -7.2722311 
   22100    425.20355   -406.75509   -406.37036    1.3918013 
   22200    253.14355   -406.58764   -406.35859   -32.394208 
   22300    385.44773   -406.69817    -406.3494    30.781346 
   22400    259.58139   -406.58742   -406.35255   -21.857928 
   22500    294.69563   -406.62801   -406.36136   -1.7269538 
   22600    248.86782   -406.59931   -406.37413    47.091752 
   22700    137.20673    -406.5187   -406.39455   -44.023108 
   22800    235.15679   -406.62985   -406.41708    46.076076 
   22900    299.90729   -406.70441   -406.43305   -11.696857 
   23000     216.8142   -406.63658   -406.44041   -25.010396 
   23100    391.98762   -406.79672   -406.44204    24.259247 
   23200    293.67053   -406.68922    -406.4235   -34.382727 
   23300    429.74017   -406.76233   -406.37349   -16.217381 
   23400    482.82834   -406.72897   -406.29209    26.274316 
   23500    286.25123   -406.46793   -406.20892   -58.489685 
   23600    558.65918   -406.67879    -406.1733    54.015483 
   23700    385.05475   -406.55264   -406.20424   -31.678205 
   23800    316.89199   -406.59504   -406.30831    6.8290819 
   23900    207.22883   -406.62968   -406.44218    37.957276 
   24000    132.06233   -406.60578   -406.48629   -17.016676 
   24100    249.80263    -406.7212   -406.49518    23.466472 
   24200    221.41995   -406.67325    -406.4729    21.954831 
   24300    178.55295   -406.59684   -406.43528   -18.486895 
   24400    319.37142   -406.67457    -406.3856    28.106734 
   24500    344.70051   -406.63111   -406.31921    -12.08077 
   24600    389.69223   -406.61449   -406.26188   -6.9140349 
   24700    645.91617   -406.80299   -406.21856     5.468575 
   24800    318.24022   -406.50527   -406.21732   -47.412154 
   24900    456.71313   -406.71911   -406.30587    26.795263 
   25000    356.10479   -406.77447   -406.45226   -21.745094 
   25100    242.69015   -406.73344   -406.51385   -27.627555 
   25200    123.46098   -406.64136   -406.52965    34.374887 
   25300    172.84489   -406.67939   -406.52299   -17.004469 
   25400    253.17828   -406.71119   -406.48211    -14.27603 
   25500    206.45552   -406.58738   -406.40058    51.799595 
   25600    155.52246   -406.45683   -406.31611   -33.004388 
   25700    401.38281   -406.63551   -406.27233    28.113728 
   25800    205.09437   -406.45218   -406.26661   -9.2830868 
   25900    304.30174   -406.56479   -406.28945    9.2215412 
   26000    431.68331   -406.71692   -406.32632   -5.5739869 
   26100    246.91061    -406.5933   -406.36989   -27.758387 
   26200    261.23667   -406.65308   -406.41671    13.613269 
   26300    405.61251    -406.8432    -406.4762   -6.4182462 
   26400    211.95742   -406.76926   -406.57748   -38.332614 
   26500    158.69072    -406.8013   -406.65771     42.30914 
   26600    113.00402   -406.76639   -406.66414   -27.954297 
   26700    187.48511   -406.81001   -406.64037    13.304931 
   26800    105.43782   -406.67855   -406.58315    28.562396 
   26900    153.96326    -406.6547   -406.51539   -15.951856 
   27000    213.87449   -406.64826   -406.45474    23.850704 
   27100    245.32068   -406.62065   -406.39868    15.124979 
   27200    283.97157   -406.60891   -406.35197   -29.121139 
   27300    565.13022   -406.81625    -406.3049    32.620502 
   27400    259.53239   -406.51807   -406.28324   -53.332324 
   27500     488.0154   -406.72724   -406.28567    27.749812 
   27600    438.74163   -406.72106   -406.32408   -22.613487 
   27700    323.07087   -406.71211   -406.41979    -40.59244 
   27800    175.24069   -406.66593   -406.50737    43.260013 
   27900    159.36568   -406.69176   -406.54757    -35.29595 
   28000      210.202   -406.74419     -406.554    8.9574923 
   28100    187.38047   -406.69724    -406.5277    19.441232 
   28200    115.82594   -406.57486   -406.47006   -19.608648 
   28300    334.02653   -406.70767   -406.40544    32.359796 
   28400    236.00034    -406.5724   -406.35886   -23.495115 
   28500    312.38958    -406.6278   -406.34515     0.483868 
   28600    415.61919   -406.72335   -406.34729    21.327856 
   28700    291.25003   -406.61426   -406.35073   -67.087025 
   28800    385.88923   -406.70757   -406.35841    44.815076 
   28900    364.71986   -406.71209   -406.38209   -33.481279 
   29000    351.00369   -406.73811   -406.42051   -16.609127 
   29100    302.72889    -406.7576   -406.48369     23.10215 
   29200     100.4386   -406.63574   -406.54486   -8.3520017 
   29300     246.0734   -406.80813   -406.58548    14.938503 
   29400    112.40145   -406.69554   -406.59384    5.6876016 
   29500    128.39684    -406.6806   -406.56442    5.9701472 
   29600    301.69252   -406.74324   -406.47026    37.094837 
   29700    219.91826   -406.56397   -406.36498   -56.674712 
   29800    253.96112   -406.54904   -406.31926    78.561692 
   29900    477.48668   -406.74596   -406.31392   -46.505638 
   30000    404.22321   -406.67598   -406.31023   -30.833031 
   30100     427.5013   -406.72197   -406.33516     40.12747 
   30200    249.05991   -406.60425   -406.37889   -44.095617 
   30300    468.92097   -406.86533   -406.44104   -11.807166 
   30400    225.52321   -406.70297   -406.49891     14.83061 
   30500    162.35183   -406.69358   -406.54668   -22.293886 
   30600    206.91119   -406.76676   -406.57954    25.983237 
   30700    112.56652    -406.6897   -406.58784   -28.641362 
   30800    96.043031   -406.63803   -406.55113    36.692416 
   30900    355.92088   -406.76738   -406.44534   -11.376672 
   31000    229.06303    -406.5508   -406.34354   -32.471271 
   31100    373.08499   -406.62571   -406.28814    59.271411 
   31200    321.54365   -406.55752   -406.26659   -63.009903 
   31300    575.74211   -406.79408   -406.27314   -6.1494422 
   31400    444.47233   -406.72809   -406.32592    8.2175988 
   31500    302.40664   -406.66812   -406.39449    -44.39932 
   31600    328.21389   -406.75543   -406.45846    31.404822 
   31700    227.79763   -406.71692    -406.5108   -22.718519 
   31800    184.47021   -406.69694   -406.53002    12.065895 
   31900    243.71074    -406.7455   -406.52499    28.677821 
   32000     107.8092    -406.5523   -406.45475   -28.016612 
   32100     262.3655   -406.50863   -406.27123    75.753376 
   32200    326.91789   -406.47371   -406.17791   -19.492626 
   32300    401.67273   -406.55089   -406.18745    8.9569393 
   32400     349.2978   -406.56587   -406.24981    31.758264 
   32500    256.57555    -406.5674   -406.33525   -28.408202 
   32600    312.82792   -406.69365   -406.41059    22.122358 
   32700    374.08043   -406.79196   -406.45349   -15.794753 
   32800    283.26166   -406.73346   -406.47715    -28.75247 
   32900    363.14382   -406.80266   -406.47408    37.676675 
   33000    196.54869   -406.63291   -406.45506   -65.690626 
   33100    413.66272   -406.73772   -406.36343    41.574322 
   33200     345.3178   -406.51279   -406.20034   -7.5106138 
   33300    407.34575   -406.47838    -406.1098   -32.434031 
   33400      252.884   -406.36563   -406.13682    58.065839 
   33500    189.18882   -406.39837   -406.22719   -17.814352 
   33600    272.25923   -406.55756   -406.31122    24.577177 
   33700    276.93937   -406.61957   -406.36899    8.2761818 
   33800     170.3562   -406.54629   -406.39215   -19.689619 
   33900    237.45055   -406.63187   -406.41702    47.321917 
   34000    278.64938   -406.68078   -406.42865   -50.277914 
   34100    342.12073   -406.73707   -406.42751    1.6042026 
   34200    393.07585   -406.76064   -406.40498      17.4621 
   34300    330.95038   -406.62958   -406.33013   -67.535478 
   34400    578.08064    -406.6795   -406.15644    33.187815 
   34500    457.12339   -406.46674   -406.05313   -35.314455 
   34600    686.00777   -406.70818   -406.08746   -7.6742003 
   34700    523.12555    -406.6609   -406.18757   -1.3011664 
   34800     351.0595   -406.60669   -406.28905    -39.60713 
   34900    277.77075   -406.60297   -406.35164    45.272416 
   35000    312.52184   -406.66955   -406.38677   -12.197656 
   35100    266.41886   -406.64283   -406.40176   -14.497844 
   35200    185.63791   -406.57907   -406.41111    69.326074 
   35300    92.784596   -406.50805    -406.4241   -35.630614 
   35400    331.81759   -406.71082   -406.41059    43.857892 
   35500    236.14287   -406.59963   -406.38596   -1.5399633 
   35600    276.15144   -406.56718   -406.31731   -4.6376299 
   35700    465.66068    -406.6344   -406.21306     36.10088 
   35800    439.30956   -406.54467   -406.14717   -43.376659 
   35900    600.73192   -406.70437   -406.16081   -6.3405088 
   36000    566.85823   -406.77033   -406.25743    11.383605 
   36100    275.30116   -406.62863   -406.37953   -48.654492 
   36200    446.29647   -406.85114   -406.44732    22.851531 
   36300    168.63181    -406.6158   -406.46322   -32.815768 
   36400    317.46248   -406.74952   -406.46228    15.120752 
   36500    274.83226   -406.68454   -406.43586   -4.2374073 
   36600    205.81373   -406.59231   -406.40609   -24.256767 
   36700    146.11876   -406.49113   -406.35892    62.357602 
   36800    301.85072   -406.56317   -406.29005   -35.929013 
   36900    390.71329   -406.52651   -406.17299    8.2355519 
   37000    476.95378   -406.45621   -406.02465    42.873975 
   37100    241.39402   -406.15849   -405.94007   -31.275392 
   37200    329.41154   -406.33385   -406.03579    38.641476 
   37300    368.79227   -406.62071   -406.28702    3.1762945 
   37400     268.5434   -406.62342   -406.38044   -39.916209 
   37500    311.75043   -406.70579   -406.42371    37.205205 
   37600    189.66931   -406.61669   -406.44507   -33.603599 
   37700    386.00857    -406.8083   -406.45903    9.4297573 
   37800    329.81642   -406.74386   -406.44543   -24.721584 
   37900    254.71509   -406.64802   -406.41755  -0.72861565 
   38000    318.30911   -406.65521    -406.3672    26.257548 
   38100    339.14861   -406.59507    -406.2882   -33.280466 
   38200    379.70477   -406.55968   -406.21612    17.502656 
   38300    291.12488   -406.43621    -406.1728    58.878286 
   38400     208.7483    -406.3853   -406.19642   -30.333462 
   38500    306.10441    -406.6108   -406.33383    38.928753 
   38600    144.64857   -406.59801   -406.46713  -0.84281393 
   38700    187.99556   -406.67735   -406.50725    13.210145 
   38800    264.90507   -406.74729    -406.5076     8.533523 
   38900    247.28608   -406.70888   -406.48513   -25.860326 
   39000    267.97431    -406.6819   -406.43943    23.250241 
   39100    428.14937   -406.75941   -406.37201   -12.626553 
   39200    354.52682   -406.62219   -406.30141   -40.017916 
   39300    570.58206   -406.77188   -406.25561    22.231845 
   39400    258.88338   -406.48482   -406.25057   -19.165992 
   39500    440.37311   -406.66828   -406.26982    3.0808326 
   39600    379.16983   -406.67308      -406.33   -6.2053014 
   39700    249.24144   -406.62042    -406.3949   -21.604242 
   39800    92.467204   -406.52841   -406.44474     52.95408 
   39900    301.55259   -406.73619   -406.46334   -32.107496 
   40000    215.93021   -406.65447   -406.45909   -1.2089954 
   40100    232.18247   -406.65763   -406.44754    29.084653 
   40200    248.36701   -406.64774   -406.42302   -24.266946 
   40300    432.78408   -406.78055   -406.38896   -4.1319808 
   40400    362.84467   -406.66982   -406.34151   -10.485449 
   40500    384.64306   -406.63406   -406.28603   -23.042465 
   40600    400.06107   -406.61605   -406.25406    28.331525 
   40700     469.2465   -406.68623   -406.26164    -60.02487 
   40800    423.14053    -406.6795   -406.29663    11.923686 
   40900    342.73462   -406.69019   -406.38008   -5.8041411 
   41000    224.56428    -406.6677   -406.46451    6.1919576 
   41100     296.9047   -406.78331   -406.51467    1.2330097 
   41200    160.22967    -406.6701   -406.52512   -3.4405111 
   41300    144.69439   -406.64488   -406.51396     29.04385 
   41400    228.16058    -406.6829   -406.47646    11.087469 
   41500    303.83837   -406.68343   -406.40851   -30.031131 
   41600    214.01856   -406.52868   -406.33503    63.305167 
   41700    325.18149   -406.59918   -406.30495   -28.987016 
   41800     368.5555    -406.6384   -406.30492   0.36155089 
   41900    450.46699   -406.73218   -406.32458   -6.8655575 
   42000    223.41637    -406.5517   -406.34955   -10.791031 
   42100    384.19217    -406.7339   -406.38627    12.102893 
   42200    298.46581   -406.69205   -406.42199   -27.894408 
   42300    314.20488    -406.7443      -406.46    -10.40959 
   42400     162.9767   -406.63606    -406.4886    30.083724 
   42500    228.59224   -406.71264   -406.50581   -31.644641 
   42600    198.59157   -406.68354   -406.50385    14.237059 
   42700    145.50094   -406.59088   -406.45922    10.991227 
   42800    206.28727   -406.56137   -406.37471   -2.9655957 
   42900    417.48812     -406.658   -406.28025    14.093181 
   43000    195.94062   -406.39496   -406.21767   -26.469475 
   43100    244.45857   -406.43665   -406.21545    44.945713 
   43200    362.24313   -406.60608   -406.27831   -7.7697587 
   43300    352.68247   -406.67301   -406.35389   -32.921159 
   43400    300.26949   -406.71814   -406.44645    10.763687 
   43500    187.78121   -406.67254   -406.50263   -1.7907691 
   43600    302.38407   -406.79364   -406.52004   -13.180569 
   43700    312.99328   -406.79426   -406.51106 -0.064001285 
   43800    205.59934   -406.67921   -406.49318   -10.930447 
   43900    250.44798   -406.68968   -406.46307    40.657192 
   44000    248.47607   -406.64078   -406.41596   -32.168406 
   44100     276.4598   -406.61579   -406.36564    25.818053 
   44200    159.15515   -406.46598   -406.32197    31.198086 
   44300    170.15143   -406.42795   -406.27399   -1.5802509 
   44400    382.64589   -406.58536   -406.23913    22.687172 
   44500    309.91785   -406.52884   -406.24842     4.727091 
   44600    290.62685   -406.58102   -406.31806   -7.6535893 
   44700    238.96171   -406.64291    -406.4267    46.507449 
   44800    291.20603   -406.75982   -406.49633   -48.693524 
   44900     309.0588   -406.80291   -406.52327    18.335495 
   45000     253.7653   -406.75068   -406.52107   -6.9422235 
   45100    262.55675   -406.73044   -406.49287    -17.62428 
   45200    461.15226   -406.84067   -406.42341   -3.3730117 
   45300    284.26057   -406.57569   -406.31849   -17.053216 
   45400     443.2037   -406.66161   -406.26059    2.3862082 
   45500    370.82691   -406.59361   -406.25808    15.567863 
   45600    376.96769    -406.6209   -406.27981   -41.248651 
   45700    269.74076   -406.55427   -406.31021    40.196267 
   45800    230.06707   -406.55818   -406.35001   -4.9639282 
   45900    216.87004   -406.57854   -406.38232   -1.5827914 
   46000    379.26713   -406.75781   -406.41464    3.7523223 
   46100    127.62196   -406.54666   -406.43118   -9.5734741 
   46200    335.97778   -406.74471   -406.44071    25.496134 
   46300    312.48596   -406.73591   -406.45317   -33.078795 
   46400    332.21034    -406.7489   -406.44831   -10.249412 
   46500    238.13083   -406.64235   -406.42689    20.187503 
   46600    411.43041   -406.75462   -406.38235   -28.803979 
   46700    371.82869    -406.6646   -406.32816   -18.980001 
   46800    364.09902   -406.60998   -406.28053    22.889768 
   46900    251.31584   -406.46663   -406.23923   -7.4528417 
   47000    503.57768   -406.70403   -406.24838     10.33501 
   47100    312.57251   -406.58353   -406.30071    -19.10697 
   47200    224.03381   -406.60021    -406.3975     23.29313 
   47300    133.85646   -406.59714   -406.47602    20.757784 
   47400    218.78548   -406.70864   -406.51067    -6.317599 
   47500    163.76299   -406.66575   -406.51757    5.5782352 
   47600    153.84652   -406.64189   -406.50269    31.383973 
   47700    152.95546   -406.60365   -406.46525   -20.225147 
   47800    405.82623   -406.77166   -406.40446    7.7887693 
   47900    174.05312   -406.49724   -406.33975  -0.62744006 
   48000    338.67885   -406.62317   -406.31672    13.113353 
   48100    404.56253    -406.6869   -406.32084   -20.628368 
   48200    362.53316   -406.66746   -406.33943   -16.173814 
   48300    297.33648   -406.63399   -406.36495    10.544473 
   48400     290.9998   -406.65656   -406.39326    7.9609855 
   48500    269.41918   -406.66441   -406.42063   -27.550346 
   48600    294.26047   -406.71269   -406.44643    14.826405 
   48700    114.14993   -406.56614   -406.46286   -1.1787139 
   48800    210.97809   -406.67422   -406.48333    17.429238 
   48900    253.38892   -406.71782   -406.48855   -15.235344 
   49000    208.74196   -406.65287     -406.464    2.1926668 
   49100    233.95966   -406.60228   -406.39059    21.938379 
   49200    362.71987   -406.62916   -406.30096   -11.761222 
   49300    449.80296   -406.63406   -406.22707   -10.540827 
   49400    443.88473   -406.60616   -406.20452   -7.9658302 
   49500    308.12362    -406.5194   -406.24061    -4.578542 
   49600     310.3001   -406.59244   -406.31168    7.7166229 
   49700    392.30072   -406.77883   -406.42387   -15.954809 
   49800    306.40945   -406.76464    -406.4874   -22.418857 
   49900     291.1257    -406.7666   -406.50318    15.556001 
   50000     219.0705   -406.69269   -406.49447   -9.5078166 
   50100    376.10829    -406.8106   -406.47029    -1.946789 
   50200    243.30099   -406.64581   -406.42567   -3.7907826 
   50300     217.1695   -406.56771   -406.37121    23.120111 
   50400    281.70356   -406.57627   -406.32138    15.690515 
   50500    388.25623   -406.62666   -406.27536   -12.133467 
   50600    299.41224   -406.51672   -406.24581    9.3579989 
   50700    372.03365   -406.58497   -406.24835    27.776949 
   50800    219.44621   -406.52314   -406.32458    -4.939994 
   50900    366.70251   -406.77159   -406.43979     14.35528 
   51000    231.37821   -406.72217   -406.51282   -26.252549 
   51100    237.58346   -406.75189   -406.53692    18.667538 
   51200    231.32932   -406.73842    -406.5291   0.56571946 
   51300    278.08777   -406.74316   -406.49154   -23.747143 
   51400    303.81715   -406.67917   -406.40427   -5.3116625 
   51500     341.2969   -406.62958   -406.32077    25.410668 
   51600    316.07603   -406.55688   -406.27089   -31.713698 
   51700    540.82545    -406.7538   -406.26445    2.9960948 
   51800    300.71627   -406.55467   -406.28258   -16.738162 
   51900    255.07353   -406.54492   -406.31413    23.369549 
   52000     191.2077   -406.53569   -406.36268    12.438585 
   52100    287.70053   -406.65276   -406.39244   -12.799469 
   52200     204.3448   -406.59436   -406.40946   -5.1606356 
   52300    213.30914   -406.60605   -406.41305    33.895825 
   52400    209.05302   -406.60387   -406.41471   -25.933715 
   52500    443.55332   -406.81154    -406.4102    4.3021364 
   52600    229.79568   -406.61169   -406.40376   -8.5689352 
   52700    293.86276   -406.66577   -406.39987    13.210778 
   52800    357.90761   -406.70596   -406.38211   -1.9302319 
   52900    389.20126   -406.70964   -406.35748   -26.193893 
   53000    324.71381   -406.63255   -406.33874    10.297138 
   53100    236.07748   -406.55038   -406.33677    15.759796 
   53200    254.15766   -406.56748   -406.33751    -1.575671 
   53300    420.63783   -406.72344   -406.34284   -3.6207975 
   53400    267.34795   -406.62209   -406.38019   -5.9224634 
   53500     219.6293   -406.62616   -406.42743    26.343793 
   53600    227.91681   -406.68324   -406.47702    11.529992 
   53700    276.59386   -406.75887   -406.50861   -17.223375 
   53800    202.43543   -406.70414   -406.52097    17.674338 
   53900    219.28433   -406.70393   -406.50551    8.4524456 
   54000    269.81487   -406.68373    -406.4396   -15.819875 
   54100    509.35006   -406.79464   -406.33376    -5.356251 
   54200    394.44712   -406.60266   -406.24576   -10.450743 
   54300    417.78266   -406.59454   -406.21652    2.5289735 
   54400    419.33235   -406.62363   -406.24421    5.8407189 
   54500    424.00657   -406.68421   -406.30056   -36.336035 
   54600    410.36213   -406.74445   -406.37315    10.390907 
   54700     249.1566   -406.65133   -406.42589   -11.436448 
   54800    264.62663    -406.6926   -406.45316    10.773992 
   54900    305.14729   -406.73219   -406.45608   -20.671889 
   55000    276.65614   -406.69621   -406.44589     -1.92382 
   55100    211.30721   -406.63226   -406.44107    14.483398 
   55200    296.99222   -406.69153    -406.4228   0.15255377 
   55300     323.0655   -406.69653   -406.40421   -30.961791 
   55400    317.82179    -406.6593   -406.37173    27.741417 
   55500    230.31528    -406.5575   -406.34911   -11.547891 
   55600    359.52998   -406.64018   -406.31487    1.1564939 
   55700    426.03428   -406.65571   -406.27022   -26.462558 
   55800    390.94204     -406.582   -406.22827    2.6919408 
   55900    420.21416    -406.5696   -406.18938    15.510281 
   56000    532.14563   -406.69213   -406.21063   -23.297451 
   56100     444.5908   -406.70017   -406.29789   -19.817874 
   56200    370.60313   -406.74262   -406.40729     14.04484 
   56300    195.08294   -406.64351   -406.46699   -1.7828063 
   56400    317.59867   -406.78228   -406.49491    5.3771147 
   56500    186.03514   -406.66265   -406.49432    -10.82548 
   56600    137.72374   -406.59599   -406.47137    30.139582 
   56700    212.91607   -406.60722   -406.41457    7.8908618 
   56800    342.48736   -406.60519    -406.2953   -12.139259 
   56900    314.51757   -406.48207   -406.19749     19.36183 
   57000    405.35337   -406.53903   -406.17225    20.847853 
   57100    345.48849   -406.52405   -406.21145   -2.1334934 
   57200    514.50839   -406.72721   -406.26167  -0.80122108 
   57300    339.30334   -406.62418   -406.31717   -15.605895 
   57400    267.13325     -406.607    -406.3653     5.033826 
   57500     226.8775    -406.6124   -406.40712    22.891661 
   57600    301.58984   -406.71367   -406.44079    -31.61769 
   57700    282.65766   -406.71507   -406.45932    9.4974935 
   57800    209.86272   -406.65747   -406.46758    1.8784037 
   57900    234.15169   -406.66149   -406.44962    2.6865133 
   58000    391.03326   -406.73795   -406.38414   -16.094924 
   58100     325.2585   -406.58254   -406.28824    5.6376893 
   58200     307.2614    -406.4856   -406.20759    11.422486 
   58300    322.55568   -406.47041   -406.17856    16.926401 
   58400    287.66755     -406.467   -406.20671   -11.640824 
   58500    286.40861   -406.55393   -406.29479    20.767865 
   58600    177.22916   -406.56225   -406.40189   -21.530224 
   58700    131.51048   -406.57723   -406.45823    36.051871 
   58800    286.28606   -406.73034   -406.47131   -17.829643 
   58900    265.31724    -406.7035   -406.46344   -15.829109 
   59000    237.52096   -406.65436   -406.43945    16.746136 
   59100     378.7785   -406.75073     -406.408   -6.4835375 
   59200    376.71325   -406.71039   -406.36953   -36.050003 
   59300    423.77798   -406.70683   -406.32338    21.514744 
   59400    363.01605   -406.59041   -406.26194   -29.231372 
   59500    437.33571   -406.52592   -406.13021    17.031577 
   59600    586.48808   -406.47668   -405.94601     -7.11869 
   59700    541.27317   -406.38685   -405.89709   -24.700056 
   59800    523.05533   -406.51905   -406.04578    19.430845 
   59900    444.15875   -406.62123   -406.21934   -20.747553 
   60000    268.46003   -406.55077   -406.30786    10.503165 
   60100    387.99232    -406.7103   -406.35924    8.5032953 
   60200    181.18367   -406.56959   -406.40565   -14.776247 
   60300    288.67058   -406.69865   -406.43745    6.7284083 
   60400    229.78124    -406.6706   -406.46269    16.108144 
   60500    273.42425   -406.72203   -406.47463   -24.903861 
   60600    276.67044   -406.70478   -406.45444    22.442072 
   60700    328.93654    -406.7033   -406.40567   -14.293058 
   60800    372.91398   -406.63638   -406.29896    3.2579262 
   60900    565.42402   -406.70867   -406.19706   -7.1110743 
   61000    402.65144   -406.51659   -406.15227   -9.1782441 
   61100    473.31232   -406.61441   -406.18615    4.7509981 
   61200    418.85995   -406.66988   -406.29088    2.6204868 
   61300    316.46438   -406.67146   -406.38512   -28.874175 
   61400    248.55335   -406.65757   -406.43267     32.01726 
   61500     309.1204   -406.71827   -406.43857   -27.588317 
   61600    330.54642   -406.73185   -406.43276   0.80623526 
   61700    335.03631   -406.71305    -406.4099    2.7385435 
   61800    305.48243   -406.66404   -406.38763   -10.253221 
   61900    417.39279   -406.72451   -406.34684   -5.9850968 
   62000    343.03676   -406.60501   -406.29462    7.3904413 
   62100    389.92457   -406.58111   -406.22829   -12.270596 
   62200    412.92697   -406.51592   -406.14229    20.443351 
   62300      309.436    -406.3668   -406.08681   -30.548393 
   62400    319.70714    -406.4267   -406.13743    38.612772 
   62500    298.73932   -406.56537   -406.29507   -11.590925 
   62600    286.73772   -406.66463   -406.40519   -8.2538578 
   62700    244.46388   -406.67316   -406.45196    23.542851 
   62800    227.33719   -406.66994   -406.46424   -16.472761 
   62900    278.95057   -406.71843   -406.46603    3.5829799 
   63000    276.83458   -406.68487   -406.43438    14.685322 
   63100    216.75579   -406.57761   -406.38148   -20.016653 
   63200    333.96219   -406.58868   -406.28651    22.753935 
   63300    334.71244   -406.48863   -406.18577    5.0146243 
   63400     380.3328   -406.49069   -406.14656   -18.935066 
   63500    401.64419   -406.53551   -406.17209    37.827458 
   63600     287.3278   -406.57906   -406.31908   -28.693232 
   63700    277.70752   -406.71401   -406.46273    16.482156 
   63800     293.9715   -406.76316   -406.49717   -3.0147829 
   63900    228.12557   -406.69647   -406.49005   -9.0429441 
   64000    298.80764   -406.73767   -406.46731    17.591092 
   64100    234.61272   -406.62982   -406.41753    -11.64148 
   64200    365.30813   -406.67508   -406.34454   -6.3249284 
   64300    332.92082   -406.57285   -406.27162    30.380579 
   64400    341.62954   -406.54374   -406.23462   -43.886662 
   64500    407.13998   -406.59808   -406.22969    27.074145 
   64600    456.03653   -406.70803    -406.2954   -11.451386 
   64700    291.73294   -406.68353   -406.41957   -13.711049 
   64800    316.02496   -406.80426   -406.51832    5.9860848 
   64900    171.06197   -406.69115   -406.53637   -3.3870321 
   65000    269.06936   -406.76781   -406.52435   -12.572958 
   65100    207.68134   -406.67503   -406.48711     19.49575 
   65200    218.08091   -406.62438   -406.42706   -31.858893 
   65300    229.75025   -406.56306   -406.35518    37.811582 
   65400    295.28327   -406.58142   -406.31424   -27.413765 
   65500    277.79191   -406.55039   -406.29904     11.42888 
   65600    397.94998   -406.65874   -406.29867    14.342165 
   65700    208.15463   -406.50646   -406.31812    -14.37345 
   65800    352.51443   -406.65852   -406.33956     11.80958 
   65900    242.70584    -406.5805   -406.36089     14.04742 
   66000    308.22431    -406.6455   -406.36661   -19.249703 
   66100     188.1993   -406.54505   -406.37477    35.157454 
   66200    228.80229   -406.58318   -406.37615   -21.323154 
   66300    212.89996   -406.57917   -406.38653    16.024875 
   66400    331.07702   -406.70204   -406.40248      4.32351 
   66500    206.36185   -406.60823   -406.42151   -17.241517 
   66600    323.24089   -406.75261   -406.46013    21.584326 
   66700    209.67327   -406.68016   -406.49045   -18.072164 
   66800    316.70697    -406.7945   -406.50794   -2.3104036 
   66900    265.87564   -406.73453   -406.49396    14.716061 
   67000    249.36061   -406.68027   -406.45464   -28.705541 
   67100    292.79335   -406.64378   -406.37886    25.419634 
   67200     401.8456   -406.65962   -406.29603    -10.42092 
   67300    332.68769   -406.54634   -406.24532   -20.352563 
   67400    467.99057   -406.65517   -406.23173    35.581515 
   67500    270.23525   -406.50714   -406.26262   -35.731514 
   67600    457.50032   -406.75371   -406.33975     13.43259 
   67700    287.85435   -406.71863   -406.45818    1.7615884 
   67800     233.7908   -406.74556   -406.53402    -18.67236 
   67900     188.8557   -406.71507   -406.54419    21.233681 
   68000    225.21546   -406.73453   -406.53075     -16.2659 
   68100    235.89196   -406.71777   -406.50433   -3.6174852 
   68200    325.75602   -406.74169   -406.44694    22.993331 
   68300    231.58623   -406.58678   -406.37723   -41.874122 
   68400    383.07802   -406.66641    -406.3198     41.56792 
   68500    270.81431   -406.52159   -406.27655   -18.167072 
   68600     416.0696   -406.65558   -406.27912   -2.4369027 
   68700     238.8294   -406.52089   -406.30479    27.009157 
   68800     275.0035   -406.63819   -406.38936    -14.21487 
   68900    175.14184   -406.66897   -406.51049     3.995527 
   69000    165.16727   -406.73078   -406.58133    12.362006 
   69100    144.42896   -406.72139   -406.59071    -19.82131 
   69200    231.34238   -406.77424   -406.56492    22.790203 
   69300    169.53839   -406.67381   -406.52041   -22.217332 
   69400    325.31595    -406.7534   -406.45905    13.450001 
   69500    303.48076   -406.67517   -406.40057   -12.876532 
   69600    311.15729   -406.64461   -406.36307   -5.4942645 
   69700    350.16646   -406.66029   -406.34345    14.932364 
   69800    319.11779   -406.61553   -406.32679   -19.898856 
   69900    337.01083   -406.63364   -406.32871   -3.4979454 
   70000    411.06836   -406.71463   -406.34268    26.800649 
   70100    251.30568   -406.62993   -406.40254   -46.024126 
   70200     314.5304   -406.79569   -406.51109    31.646429 
   70300    197.38512    -406.7561   -406.57751   -14.468425 
   70400    226.92875   -406.80247   -406.59714   -2.9898001 
   70500    210.11817   -406.76773   -406.57761    9.1864173 
   70600    193.38745    -406.6957   -406.52072   -10.069149 
   70700    256.52541   -406.67258   -406.44047    7.7971902 
   70800    293.63365   -406.64774   -406.38205    0.2754714 
   70900    242.36287   -406.57308   -406.35378   -9.1410698 
   71000     367.2081   -406.67685   -406.34459    25.102696 
   71100    263.45228   -406.58045   -406.34207   -34.497697 
   71200    327.62994     -406.654   -406.35755    25.172314 
   71300    291.88313   -406.64442   -406.38032  -0.20438501 
   71400    299.63912   -406.68033   -406.40921   -20.889256 
   71500    238.93971   -406.69597   -406.47977    28.037327 
   71600    196.30511   -406.72125   -406.54363    -18.94993 
   71700    153.08734   -406.71607   -406.57755    6.9533843 
   71800    142.91271   -406.71061    -406.5813    8.4833192 
   71900    164.15495   -406.69362   -406.54509    -17.14138 
   72000     268.5983   -406.69363    -406.4506    16.473457 
   72100     324.9916   -406.64628   -406.35223     -9.17562 
   72200    383.07677   -406.67136   -406.32474   -21.343112 
   72300    454.06084   -406.71988   -406.30904    28.015933 
   72400    378.53224   -406.66796   -406.32546   -40.724885 
   72500    391.93598   -406.70396   -406.34933    21.347399 
   72600    347.81599   -406.71198   -406.39727   -15.207717 
   72700    222.59409   -406.65125   -406.44984   -3.7109251 
   72800    243.88466   -406.72513   -406.50445    19.756714 
   72900    143.72714   -406.68523   -406.55519   -19.807835 
   73000    187.62675   -406.76027    -406.5905    16.953547 
   73100    188.28202   -406.77168   -406.60132    5.5574822 
   73200    183.32607   -406.73778    -406.5719   -27.033903 
   73300    245.59651   -406.70448   -406.48226    47.199161 
   73400    290.84005   -406.63543   -406.37227   -39.281864 
   73500    386.47068   -406.66131   -406.31162    11.298859 
   73600    281.68499   -406.53006   -406.27519    14.207596 
   73700    276.29221    -406.5199   -406.26991   -1.0078159 
   73800    347.86063   -406.62184   -406.30709   -10.868894 
   73900    225.05346   -406.57217   -406.36853    17.551969 
   74000    185.82657   -406.61619   -406.44805   -7.0936405 
   74100     271.2245    -406.7491   -406.50369    6.9824773 
   74200    204.11712   -406.72586   -406.54117   -12.707453 
   74300    205.99567   -406.72704   -406.54065    13.140868 
   74400    284.16549   -406.76086   -406.50374   -13.083287 
   74500    287.95117   -406.62229   -406.36175   -3.7624149 
   74600    282.93095   -406.49557   -406.23956    9.1084735 
   74700    490.97422   -406.65512   -406.21088   -2.8744811 
   74800    391.35147   -406.58511   -406.23101   -28.673543 
   74900    301.43789   -406.57297   -406.30022    25.713385 
   75000    360.67372   -406.70783   -406.38148    -23.90373 
   75100    369.78646   -406.77183   -406.43724   -1.6123542 
   75200    302.67124   -406.74101   -406.46715  -0.99890031 
   75300      251.393   -406.71091   -406.48345   0.52699566 
   75400    262.12064   -406.70959   -406.47242   -5.7765918 
   75500    245.05779   -406.64971   -406.42798    5.4442612 
   75600     298.3177   -406.56521   -406.29528    11.561155 
   75700    406.03243   -406.51108   -406.14369   -8.7243223 
   75800    455.25316   -406.52748   -406.11555    1.1713729 
   75900    303.71444    -406.4507    -406.1759    24.012025 
   76000    446.91052   -406.67888   -406.27451   -22.927768 
   76100     337.1223   -406.66133    -406.3563    11.757663 
   76200    238.78316     -406.626   -406.40995    10.155034 
   76300    213.74962   -406.62074   -406.42734 -0.0018147327 
   76400    309.46089   -406.71982   -406.43981    -6.000914 
   76500    200.16391   -406.61342   -406.43231    17.997864 
   76600    300.28637   -406.67711    -406.4054   -8.2982955 
   76700    351.31674    -406.6493   -406.33142    0.9216323 
   76800    521.18252    -406.6298   -406.15822   -3.8719199 
   76900    409.04276    -406.4074   -406.03729    1.0866809 
   77000    720.12457   -406.69504   -406.04346     19.45264 
   77100    318.14031   -406.44519   -406.15733   -48.608539 
   77200    347.20938   -406.58127   -406.26711    36.454489 
   77300    320.39095   -406.62177   -406.33187   -5.7190155 
   77400    282.20291   -406.63337   -406.37803    -22.73167 
   77500    280.22334   -406.65002   -406.39647    24.451768 
   77600    319.77035   -406.70508   -406.41574    -14.24813 
   77700    294.89939   -406.69393    -406.4271    -14.50997 
   77800    306.63268   -406.71181   -406.43436    24.102079 
   77900    167.16389   -406.57728   -406.42603   -29.860306 
   78000    367.21159   -406.73085   -406.39859    21.288614 
   78100    293.12753   -406.60077   -406.33554   -14.328921 
   78200    301.45406   -406.53586    -406.2631    4.9764905 
   78300    429.48569   -406.59296   -406.20435     9.074261 
   78400    483.15758   -406.62274   -406.18557   -9.1356865 
   78500     273.7459   -406.49251   -406.24482   -2.9937572 
   78600    350.31308   -406.67736   -406.36039    28.451795 
   78700    184.57249   -406.62296   -406.45595   -21.600627 
   78800    251.79099   -406.72557   -406.49774    19.462099 
   78900    188.26359   -406.66942   -406.49907   -1.7150332 
   79000    210.34614   -406.66945   -406.47913    2.6872146 
   79100    216.34513   -406.63632   -406.44057    0.5917557 
   79200    289.91192   -406.65209   -406.38978    7.5654343 
   79300    335.62522   -406.64492   -406.34124    -14.01884 
   79400    433.30912   -406.69047    -406.2984    11.761321 
   79500     261.0472   -406.52015   -406.28395    -14.58491 
   79600    362.11626   -406.63259   -406.30494    13.995829 
   79700    281.96114   -406.64413     -406.389   -19.349647 
   79800    223.28326   -406.73941   -406.53738    9.7436928 
   79900    199.46173   -406.76007   -406.57959   -6.1099618 
   80000    188.65942   -406.75134   -406.58064   -3.6491602 
   80100    208.38049   -406.73526   -406.54671    4.4322586 
   80200    254.54665   -406.70661   -406.47629   -3.5702576 
   80300    307.16576   -406.67293     -406.395   -9.0482133 
   80400    374.93046   -406.66429   -406.32505     5.627447 
   80500    291.58189   -406.56114   -406.29731   -3.9994599 
   80600    429.97064   -406.67204     -406.283    5.1193225 
   80700    330.56439   -406.59838   -406.29928   -21.995375 
   80800     311.4016    -406.6223   -406.34054    20.117346 
   80900    282.19715   -406.69148   -406.43614    2.3249232 
   81000    207.14502   -406.71772   -406.53029    -14.10784 
   81100    187.13773   -406.74289   -406.57357     15.46898 
   81200    183.86799   -406.74083   -406.57447    1.8545093 
   81300    233.74106   -406.75384   -406.54235    -9.884083 
   81400    231.86414   -406.71035   -406.50055    15.835022 
   81500    241.62598   -406.66983    -406.4512   -4.8922216 
   81600    292.48507   -406.67995    -406.4153  -0.49051809 
   81700    308.84117   -406.65477   -406.37532    4.7225063 
   81800    309.76656   -406.63355   -406.35326   -6.0685539 
   81900    377.69619   -406.67742   -406.33567    3.1174629 
   82000    283.41312   -406.58414    -406.3277   -13.631799 
   82100    391.49121   -406.68225   -406.32803    20.693245 
   82200    314.07269    -406.6459   -406.36172   -20.240687 
   82300    311.16523   -406.73766   -406.45612   -7.4867475 
   82400    193.46346   -406.69708   -406.52203    14.683417 
   82500    207.25625   -406.74383    -406.5563   -7.4195906 
   82600     208.9434   -406.75064   -406.56158   -9.8537064 
   82700    191.05563    -406.7017   -406.52883    13.494296 
   82800    262.76492   -406.68665    -406.4489   -4.1748514 
   82900    362.34041   -406.68674   -406.35889   -8.0378322 
   83000    295.18906   -406.57291   -406.30582   -9.1578652 
   83100    327.44765   -406.58048    -406.2842    35.451043 
   83200    386.81577   -406.64893   -406.29893   -30.151063 
   83300    417.08815   -406.71761   -406.34022   -2.9672711 
   83400    225.28754   -406.59105   -406.38721    14.362452 
   83500    267.89488   -406.68044   -406.43805    2.5555901 
   83600    253.88885   -406.73183   -406.50211   -11.712224 
   83700    161.46054   -406.71839    -406.5723     10.74875 
   83800    145.06232   -406.75691   -406.62566   -2.2187689 
   83900     187.1125   -406.81389   -406.64458    2.9229492 
   84000    109.73496   -406.72801   -406.62872   -8.3742705 
   84100    216.83089   -406.74717   -406.55098    23.578885 
   84200    272.64156   -406.70342   -406.45673   -25.447128 
   84300     326.6095   -406.71924   -406.42372    6.3106441 
   84400    286.20083   -406.64566    -406.3867    13.097551 
   84500    358.46361    -406.6747   -406.35035   -12.316564 
   84600    375.60208   -406.65616   -406.31631   -11.414358 
   84700    334.54588   -406.59953   -406.29683    17.965998 
   84800    286.48548   -406.55757   -406.29835   -6.8313924 
   84900    388.59194   -406.68318   -406.33158    1.2321479 
   85000    244.94629    -406.5995   -406.37787   -17.662255 
   85100      260.944   -406.67815   -406.44204    28.195243 
   85200    212.72981   -406.69243   -406.49995   -18.272306 
   85300    261.64203   -406.76785   -406.53111  -0.64766705 
   85400    175.80865    -406.6983   -406.53923    7.4427172 
   85500    251.23267   -406.74588   -406.51856    1.9201114 
   85600    273.71472   -406.68423   -406.43657   -13.247088 
   85700    316.47441   -406.58545   -406.29909    13.134164 
   85800    307.18119   -406.51414   -406.23619   -2.3217997 
   85900    468.65095   -406.64824   -406.22419    2.2688024 
   86000       289.13   -406.52272   -406.26111   -13.703847 
   86100    318.86016   -406.61647   -406.32796    22.343854 
   86200    314.18546   -406.68739   -406.40311   -19.438679 
   86300    299.53517   -406.73436   -406.46334    2.6275631 
   86400    228.65497   -406.69224   -406.48535    9.3472401 
   86500    307.03858   -406.77288   -406.49507   -12.391569 
   86600    240.17184   -406.69609   -406.47878  -0.82811882 
   86700    246.64319   -406.66034   -406.43717    17.122879 
   86800     351.5973    -406.6688   -406.35067    -13.92599 
   86900    511.41781   -406.66061   -406.19787    1.1221635 
   87000    392.90782   -406.32897   -405.97346    5.1343584 
   87100    618.10736   -406.49947   -405.94019    2.5074202 
   87200    502.68229   -406.48658   -406.03174   0.54417077 
   87300    438.60936   -406.55347    -406.1566   -12.835377 
   87400    334.66873   -406.58715   -406.28433    27.022901 
   87500    318.19593   -406.65887   -406.37096   -24.991738 
   87600    287.99445   -406.69956   -406.43898    2.6855798 
   87700    203.63963   -406.65606    -406.4718    10.188586 
   87800    256.94458   -406.72743   -406.49494   -8.6036375 
   87900    292.67966   -406.75729   -406.49246   -10.602277 
   88000    158.78664   -406.59701   -406.45333    11.537065 
   88100    324.09671   -406.66321   -406.36996    2.8136869 
   88200     415.1238    -406.6293   -406.25369   -15.333045 
   88300    401.62699    -406.5605    -406.1971  -0.36521711 
   88400    423.89085   -406.57703   -406.19348    24.593944 
   88500    328.58365   -406.54298   -406.24567   -27.663455 
   88600    415.18469   -406.69075   -406.31509    13.605272 
   88700    222.34192   -406.56366   -406.36248   -4.6180574 
   88800    366.29219   -406.70781   -406.37638   -4.1338041 
   88900    342.31529   -406.69286   -406.38313  -0.64079469 
   89000    286.39197   -406.64587   -406.38673    1.9383323 
   89100    321.33703   -406.67442   -406.38366   -6.8030534 
   89200    378.19991   -406.73446   -406.39226   -1.2521826 
   89300    184.58551   -406.55097   -406.38395    1.1739729 
   89400    368.51155   -406.70659   -406.37315    16.734332 
   89500    300.34744   -406.60036    -406.3286   -35.348574 
   89600    362.47785    -406.6106   -406.28262    29.730022 
   89700    290.72761    -406.5018   -406.23875    9.7366972 
   89800    489.27337   -406.66435   -406.22165   -22.008031 
   89900    383.66153   -406.61749   -406.27035    5.6167887 
   90000    236.42047   -406.55779   -406.34388    15.401401 
   90100    253.31382   -406.67731   -406.44811   -11.336427 
   90200    318.69557   -406.78347   -406.49511    5.7815888 
   90300    154.71212   -406.64814   -406.50816    -12.52683 
   90400    244.41244   -406.71669   -406.49554    23.470997 
   90500    217.56242   -406.65344   -406.45659   -23.241969 
   90600    324.47506   -406.68641   -406.39282    3.7295942 
   90700    314.16775   -406.58635   -406.30209    10.955418 
   90800    423.97632   -406.59336   -406.20974   -18.568311 
   90900    412.11462   -406.54282   -406.16993    3.7560415 
   91000    312.46416   -406.47226   -406.18954    17.831635 
   91100    369.47189    -406.5647   -406.23039   -18.803903 
   91200    436.87027   -406.65996   -406.26467     15.39746 
   91300    191.45707   -406.47642   -406.30318   -10.872294 
   91400    293.12214   -406.62893   -406.36371    15.352263 
   91500    307.48349   -406.69429   -406.41607   -6.2522394 
   91600    210.58321   -406.65629   -406.46575   -8.0488465 
   91700    264.29187    -406.7292   -406.49007    15.348541 
   91800    263.89056   -406.73405   -406.49528   -13.966281 
   91900    285.70836   -406.73283   -406.47432   -7.9082603 
   92000    301.87274   -406.67658   -406.40344    23.272557 
   92100    294.77624   -406.56458   -406.29786    -21.47558 
   92200    454.22424   -406.60828   -406.19729    12.040437 
   92300    373.04054   -406.52893   -406.19139   -8.1122109 
   92400    279.84542   -406.47032   -406.21711    14.783693 
   92500    415.65962   -406.66322   -406.28712    13.864823 
   92600    263.14127   -406.58524   -406.34715   -25.218594 
   92700    356.88455   -406.70057   -406.37766    24.228231 
   92800     273.4882   -406.64252   -406.39506    0.3791185 
   92900    307.27821   -406.66996   -406.39193   -17.431019 
   93000    323.05319   -406.69036   -406.39805    19.812079 
   93100    282.21332   -406.64424   -406.38889   -17.018194 
   93200    311.58654    -406.6521   -406.37017    9.7937188 
   93300    350.95528   -406.66088   -406.34333   -11.894044 
   93400    297.88482   -406.56762   -406.29809    3.0699155 
   93500     462.6811   -406.64914    -406.2305    12.400713 
   93600    429.93153   -406.56486   -406.17585   -42.338132 
   93700    511.76799   -406.63657   -406.17351    19.622776 
   93800    277.09285   -406.49423   -406.24351    13.081652 
   93900     326.2472   -406.65484   -406.35964    -18.50165 
   94000    285.83758   -406.69853    -406.4399    1.8433072 
   94100    191.93185   -406.64255   -406.46889    8.2248607 
   94200    226.62539   -406.67484   -406.46979    -2.983482 
   94300     294.0246   -406.72678   -406.46074   -4.6478369 
   94400    192.50088   -406.60171   -406.42753   -2.6474701 
   94500    297.82332   -406.63801   -406.36854    21.938799 
   94600    419.94733   -406.64146   -406.26149   -32.654595 
   94700    554.97672   -406.62904   -406.12688    2.2644367 
   94800    350.77911   -406.36042   -406.04303    10.149486 
   94900    369.35541   -406.45141    -406.1172    8.1326185 
   95000    408.27845   -406.71671   -406.34729   -14.969666 
   95100    222.23285   -406.65194   -406.45086    2.5425601 
   95200    210.71475   -406.65607   -406.46541    7.4070938 
   95300    256.74464   -406.68675   -406.45444    10.014769 
   95400    285.18166   -406.68927   -406.43123   -18.487078 
   95500    248.48165   -406.60593    -406.3811     27.36608 
   95600    374.09495   -406.67113   -406.33264   -9.4475022 
   95700    357.00319    -406.6016   -406.27857    8.1876085 
   95800    389.17974   -406.60026   -406.24812   -8.5346507 
   95900    317.61722   -406.53455   -406.24716    11.307133 
   96000    392.17838   -406.64358   -406.28872   -4.3321515 
   96100    277.73427   -406.64209   -406.39079   -1.1449847 
   96200    292.69252   -406.74351   -406.47868   -5.5761983 
   96300    209.73182   -406.71526   -406.52549    10.050477 
   96400     209.4711   -406.71441   -406.52487   -18.181938 
   96500      220.893   -406.70971   -406.50984    13.650543 
   96600    271.51257   -406.70564   -406.45997   -4.2454854 
   96700    260.52876   -406.64289   -406.40716   -4.1742968 
   96800    347.79624   -406.67732   -406.36263   -1.8198313 
   96900    251.41926   -406.56624   -406.33875    10.265253 
   97000    313.46305   -406.61592   -406.33229   -7.9859813 
   97100    330.05428   -406.63692   -406.33828    -2.410824 
   97200    322.55265   -406.64905    -406.3572   -6.9641866 
   97300    261.69564   -406.61437   -406.37758    16.559431 
   97400    307.31815   -406.69112   -406.41305   -20.978703 
   97500    288.15637   -406.72164   -406.46091    3.6466484 
   97600    222.29926   -406.72049   -406.51935    6.5313207 
   97700    202.83395   -406.75399   -406.57046   -6.0345727 
   97800    223.26294   -406.80174   -406.59972  -0.92440724 
   97900    140.31695    -406.7204   -406.59344     10.29915 
   98000    220.14638   -406.74764   -406.54844   -3.1868021 
   98100    293.62155   -406.70704   -406.44137    2.4850307 
   98200    266.59407   -406.60102    -406.3598   -3.3906444 
   98300    314.39633   -406.61539   -406.33092    18.860241 
   98400    385.90453   -406.65799   -406.30882   -16.844229 
   98500    303.47826   -406.59051   -406.31592   -3.1071556 
   98600    351.28708   -406.65234   -406.33449    15.916787 
   98700    304.81578   -406.67091   -406.39511   -12.492648 
   98800    299.34812   -406.72411   -406.45325   -1.8466744 
   98900    231.36904   -406.73035     -406.521   -2.2715135 
   99000    206.71098   -406.75543   -406.56839    1.5778479 
   99100    205.19839   -406.77046   -406.58479  -0.91708605 
   99200    198.87027   -406.75339   -406.57345   -11.041109 
   99300    235.34235   -406.69411   -406.48117    14.987651 
   99400    296.82251   -406.62195   -406.35338   -6.6931114 
   99500    345.87275   -406.58806   -406.27511   -9.9755896 
   99600    381.36548    -406.5966   -406.25154    11.873666 
   99700    373.96412   -406.60438   -406.26601   -13.465299 
   99800    320.72636   -406.60682   -406.31662      2.28677 
   99900    322.60194   -406.68582   -406.39392   -6.2452968 
  100000    258.80618   -406.68366   -406.44949    4.8874244 
  100100    312.16923   -406.77343   -406.49097   -10.685581 
  100200    222.96712   -406.71133   -406.50959  -0.32492608 
  100300     248.3068   -406.72902   -406.50435    10.126788 
  100400    253.44768   -406.68332     -406.454   -5.6292025 
  100500    433.09505   -406.67692   -406.28505   -12.470531 
  100600    339.42026   -406.47171   -406.16459    30.407518 
  100700    335.27965   -406.44792   -406.14455   -7.9905028 
  100800    434.23887    -406.6056   -406.21269    13.127503 
  100900    391.91134   -406.67349   -406.31888    -19.54841 
  101000    178.30978   -406.56042   -406.39908    19.996724 
  101100    312.12634   -406.72957   -406.44715    5.0351533 
  101200    259.60855   -406.69487   -406.45997     -18.2728 
  101300    311.52474   -406.73439   -406.45252    6.3631244 
  101400    214.85595    -406.6317   -406.43729    9.3059374 
  101500    338.15581   -406.68275   -406.37678   -18.341542 
  101600    361.93237   -406.57304   -406.24556    13.769978 
  101700    451.39671   -406.49483    -406.0864   -20.171539 
  101800    430.23884   -406.46103   -406.07174    22.243095 
  101900    442.48377   -406.53379   -406.13342   -7.7301239 
  102000    304.55366   -406.50562   -406.23006  -0.61104765 
  102100    350.66648   -406.62269    -406.3054    9.8287633 
  102200    335.85132   -406.65724   -406.35336   -5.4862828 
  102300    259.27392   -406.63292   -406.39833   -4.4758215 
  102400    231.65588   -406.62276   -406.41315    15.265166 
  102500    228.49345   -406.64363   -406.43688     -14.9901 
  102600    303.49687   -406.71318   -406.43857    10.248332 
  102700    238.72287   -406.64049   -406.42449    -19.95021 
  102800    297.86852   -406.63575   -406.36623     23.20944 
  102900    344.31197   -406.57406   -406.26252    -9.649694 
  103000    442.67575   -406.57683   -406.17629   -19.325133 
  103100    492.55374   -406.59801   -406.15233    12.822493 
  103200    300.38154   -406.48615   -406.21435    4.7966745 
  103300    352.36438   -406.63474   -406.31591   -7.1305598 
  103400    355.31581   -406.73464   -406.41315    3.9357813 
  103500    197.77786   -406.62599   -406.44704   -5.3264705 
  103600    250.62224    -406.6803   -406.45353    19.782665 
  103700    242.69786   -406.66922   -406.44962   -16.073673 
  103800    250.39424   -406.66795   -406.44139    8.9493231 
  103900     242.4889   -406.62654   -406.40714    12.173448 
  104000    286.59807   -406.61145   -406.35213   -14.439268 
  104100    350.05995   -406.58484    -406.2681    13.698129 
  104200    419.42589   -406.52249   -406.14299   -1.7291368 
  104300    559.66777   -406.48787   -405.98147   -13.358083 
  104400    728.81108    -406.5589   -405.89946    7.4224099 
  104500    546.60097   -406.53531   -406.04074   -23.464699 
  104600    411.17208   -406.63192   -406.25988   0.72191472 
  104700    349.18009   -406.66532   -406.34937    -1.675445 
  104800    247.77659   -406.60779   -406.38359   -7.9177528 
  104900    254.74887   -406.64804   -406.41754     20.49102 
  105000    274.97465   -406.69297   -406.44417   -22.531389 
  105100    348.78828   -406.77116   -406.45557    1.3741878 
  105200     191.6201   -406.63126   -406.45788    5.7678182 
  105300    293.66708   -406.68803   -406.42231   -2.4011678 
  105400     365.0435   -406.70149   -406.37119   -1.2934231 
  105500    362.09336   -406.59856   -406.27093   -12.554832 
  105600    356.92509   -406.51515    -406.1922    7.6875665 
  105700    385.53933   -406.50976   -406.16092    13.065297 
  105800    332.09205    -406.4901   -406.18961   -13.244832 
  105900    351.15486    -406.6433   -406.32557    9.9149584 
  106000    252.97627   -406.67364   -406.44474   -16.878368 
  106100    272.26452   -406.73041   -406.48406    4.7859931 
  106200    239.63201    -406.7063   -406.48948    6.2806473 
  106300    282.53094    -406.7301   -406.47446   -12.151323 
  106400    334.52208   -406.73544   -406.43276    3.5027235 
  106500    282.63946   -406.61821   -406.36247   0.71675096 
  106600    305.71164   -406.55246   -406.27585    6.6792083 
  106700     427.8028   -406.60375   -406.21667    23.827371 
  106800    251.48683   -406.42233   -406.19478   -19.881881 
  106900    461.54831   -406.69878   -406.28116    9.1376536 
  107000    227.08779    -406.6587   -406.45322  -0.35668104 
  107100    170.00724   -406.68552   -406.53169     15.08835 
  107200    246.66004   -406.76641   -406.54323   -10.379242 
  107300     249.2881   -406.74329   -406.51773   -6.5491404 
  107400    206.31919   -406.65829   -406.47161    12.159929 
  107500    381.41879   -406.73548   -406.39036   -0.7910095 
  107600    372.24565   -406.66147   -406.32466   -23.182705 
  107700    377.98893   -406.61316   -406.27115    15.644112 
  107800    352.85352   -406.58909   -406.26982   -8.8183717 
  107900    284.93063   -406.54567   -406.28786    9.0454287 
  108000    327.10616   -406.63057    -406.3346    1.6840613 
  108100    214.17572    -406.6337   -406.43991   -4.2276518 
  108200    229.27605   -406.75403   -406.54658   -6.1519023 
  108300    156.54726   -406.72515   -406.58351    13.117436 
  108400    233.15749   -406.78379   -406.57283   -10.814587 
  108500    222.34313   -406.74406   -406.54288   -5.9869053 
  108600    250.89506   -406.71129   -406.48428    4.4276825 
  108700    250.10399   -406.64375   -406.41745    6.6317098 
  108800    426.43185     -406.752   -406.36616   -20.165552 
  108900    358.58531   -406.64861   -406.32416   -1.1174269 
  109000      275.642   -406.55033   -406.30093    10.239654 
  109100    261.98064   -406.53264   -406.29559      8.32241 
  109200    458.35237   -406.74588   -406.33115   -10.642847 
  109300    227.30193    -406.6049   -406.39924   -1.4478901 
  109400    187.50365   -406.69076   -406.52111    14.087053 
  109500    178.03943   -406.75016   -406.58907    5.7567586 
  109600    205.63492     -406.783   -406.59694   -14.994839 
  109700    174.17259   -406.72847   -406.57088    13.895409 
  109800    236.59295   -406.73834   -406.52426    3.7195303 
  109900     274.0502   -406.71232   -406.46435   -13.440005 
  110000    367.98387   -406.75027   -406.41731   -4.9411634 
  110100    229.35535   -406.59139   -406.38386    11.835968 
  110200    342.42179   -406.66276   -406.35293   -1.0623533 
  110300    361.59297    -406.6698   -406.34262   -15.799636 
  110400    337.62787   -406.64097   -406.33548   -4.9172708 
  110500    211.38555    -406.5318   -406.34053    21.082631 
  110600    302.39719   -406.62642    -406.3528   -4.8815054 
  110700    305.26984   -406.71164   -406.43543   -13.044059 
  110800    195.12178   -406.69358   -406.51703    5.9571196 
  110900    158.17857   -406.70573   -406.56261    3.2979696 
  111000    254.67312   -406.80549   -406.57505   -3.0100576 
  111100    232.02053   -406.75437   -406.54443   -14.806319 
  111200    203.47141   -406.65627   -406.47216    18.230958 
  111300    356.30215   -406.69659    -406.3742   -4.9797213 
  111400    404.09803   -406.68642   -406.32078   -15.808403 
  111500    360.92175   -406.63077    -406.3042    3.6685427 
  111600    261.49178    -406.5597   -406.32309    6.0238721 
  111700    298.76625   -406.61787   -406.34754    3.2400362 
  111800    289.83314   -406.63919   -406.37695    4.6820715 
  111900     280.6867   -406.67082   -406.41685   -13.513167 
  112000    170.15577   -406.62501   -406.47105     30.79153 
  112100    179.62237   -406.70378   -406.54125   -13.391316 
  112200    211.14986    -406.7864   -406.59535    1.5211252 
  112300    175.53037     -406.776   -406.61717    6.2388848 
  112400    147.14723   -406.73471   -406.60157    1.3916849 
  112500    322.27813   -406.81912   -406.52751   -7.1369544 
  112600    243.49719   -406.62158   -406.40125   -3.4561208 
  112700    298.41758   -406.62434   -406.35433    8.4064531 
  112800    395.43029   -406.67733   -406.31954     1.734932 
  112900    374.16295   -406.65052   -406.31196   -29.752065 
  113000    265.35542   -406.56504   -406.32494    26.054122 
  113100    259.89488   -406.58733   -406.35217   -8.9224298 
  113200    297.08063   -406.67283   -406.40403    4.4571651 
  113300    290.29483   -406.71745   -406.45479   -8.6938926 
  113400    150.04751    -406.6385   -406.50274  -0.68472913 
  113500    230.80711   -406.73293   -406.52409    13.664556 
  113600     206.7741   -406.72486   -406.53777   -13.189649 
  113700     252.7279   -406.75823   -406.52955   -7.3918311 
  113800     225.9565   -406.67644   -406.47199    21.872897 
  113900    292.54936   -406.63406   -406.36935   -20.942004 
  114000    423.58655   -406.66574   -406.28247    5.4166774 
  114100    422.71182   -406.62436   -406.24188   -20.449157 
  114200    328.44939   -406.53199    -406.2348    15.460058 
  114300     255.5571   -406.50817   -406.27694    14.411997 
  114400    345.26591   -406.66756   -406.35515   -10.130651 
  114500     308.4833   -406.71541   -406.43629   -6.0704706 
  114600    166.33395   -406.63513   -406.48463    17.315854 
  114700    190.26941   -406.67563   -406.50347    1.6610899 
  114800    327.56587   -406.78813   -406.49174     -1.97861 
  114900    230.50908   -406.68367    -406.4751   -10.636486 
  115000    233.91465   -406.65611   -406.44446    23.967167 
  115100    282.38045   -406.66954   -406.41403   -7.1804953 
  115200     354.4349   -406.69576   -406.37506    -16.13894 
  115300    340.96705   -406.64197   -406.33345  0.076263761 
  115400    337.50058   -406.60892   -406.30354    15.575402 
  115500    272.68373   -406.50667   -406.25994   -6.8557743 
  115600    505.08653   -406.69811    -406.2411    -11.41772 
  115700    381.20017   -406.57281   -406.22789   -15.215206 
  115800    287.96523   -406.52064   -406.26009    24.444911 
  115900    202.75583    -406.5163   -406.33284    1.9959037 
  116000    354.43418   -406.72966   -406.40896   -10.686761 
  116100    279.61025   -406.72322   -406.47022   -6.8936911 
  116200    195.83287   -406.66768   -406.49048    9.0487686 
  116300    235.43677   -406.71764   -406.50462    3.9434955 
  116400    291.83651   -406.74332   -406.47926   -18.062653 
  116500    283.77979   -406.65965   -406.40288    2.3118012 
  116600    352.58636   -406.58543   -406.26641    15.447814 
  116700    394.25935   -406.52232   -406.16558    -14.06499 
  116800    478.10336   -406.60031   -406.16771   -8.6982267 
  116900    395.95882    -406.5817   -406.22343  0.038312616 
  117000    323.88921   -406.58682   -406.29376    6.8972099 
  117100     311.3711   -406.63881   -406.35708     14.08898 
  117200    274.25821   -406.63842   -406.39026   -15.518655 
  117300    338.25804   -406.71562   -406.40955    1.6959145 
  117400     273.6592   -406.66024   -406.41262    22.949344 
  117500    239.96214    -406.6253   -406.40818   -14.132063 
  117600    374.16324   -406.73875    -406.4002     3.009479 
  117700    274.71006    -406.6147   -406.36614  0.017734004 
  117800    239.25957   -406.50933   -406.29285    7.9162128 
  117900    549.26033   -406.67597   -406.17898    6.1641161 
  118000      441.293   -406.51662   -406.11732   -29.318366 
  118100    560.40576   -406.64604   -406.13898     1.497968 
  118200    363.22781   -406.57628   -406.24763     1.979031 
  118300    331.41677   -406.66901   -406.36914   -1.0355217 
  118400    289.45295   -406.68196   -406.42005    3.6786507 
  118500    297.95613   -406.71425   -406.44465   -21.148748 
  118600    217.89245   -406.64215     -406.445    13.393498 
  118700     243.1894    -406.6614   -406.44135    12.661781 
  118800    248.83761   -406.63164   -406.40649   -31.569459 
  118900    357.36722   -406.66145   -406.33809    23.105395 
  119000    189.05287   -406.37082   -406.19976   -7.6383605 
  119100    337.98528   -406.35789   -406.05207    21.405369 
  119200    608.60353   -406.59245   -406.04177    9.9966312 
  119300    420.88884   -406.51866   -406.13784   -39.740606 
  119400    469.59592   -406.66783   -406.24293    8.0408267 
  119500    178.18322   -406.45331   -406.29208    19.193024 
  119600    295.99107   -406.60388   -406.33606   -10.544106 
  119700    397.18231   -406.72813   -406.36875    7.4004855 
  119800    245.57424   -406.62098   -406.39878   -31.225358 
  119900    187.62023   -406.60212   -406.43236    29.502172 
  120000    343.46347    -406.7729   -406.46213    1.9710859 
  120100    228.00574   -406.69462   -406.48832   -28.447111 
  120200    284.24778   -406.75302   -406.49582    20.495464 
  120300    156.11468    -406.6118   -406.47054    8.2476876 
  120400    379.69378   -406.73191   -406.38835   -12.168642 
  120500    427.82993   -406.67098   -406.28388    6.5479287 
  120600    281.68637   -406.46944   -406.21456   -14.272404 
  120700    210.46451   -406.39203   -406.20159    56.887116 
  120800    372.87495   -406.57294   -406.23556    -19.54861 
  120900    368.91316   -406.66705   -406.33325   -12.233784 
  121000    323.03632   -406.72571   -406.43342    9.3479506 
  121100    183.04789   -406.64725   -406.48163   -1.6902824 
  121200    306.14054   -406.76604   -406.48904    1.8171005 
  121300    292.44072   -406.74417   -406.47956   -10.224699 
  121400    239.56709   -406.67244   -406.45567   -9.1627041 
  121500    236.65457   -406.63671   -406.42258    24.678033 
  121600    344.16997   -406.68896   -406.37755   -20.750456 
  121700    309.54619   -406.60871   -406.32863   0.48518266 
  121800    304.11604   -406.57135   -406.29617    1.1778873 
  121900     274.9346   -406.51006   -406.26129    5.1493777 
  122000    336.15846   -406.52385   -406.21968    18.700437 
  122100    489.01621   -406.60598    -406.1635   -25.780993 
  122200    532.67232   -406.63663   -406.15466   -13.824641 
  122300    372.17335   -406.57031   -406.23356    5.6707612 
  122400    221.52177   -406.53826   -406.33782    8.9761461 
  122500    382.12523   -406.78137   -406.43561   -1.8564383 
  122600    287.41251   -406.72912   -406.46906   -25.000546 
  122700    230.83925   -406.69222   -406.48335    16.487406 
  122800    193.33904   -406.64698   -406.47204    10.584938 
  122900    324.09848   -406.72491   -406.43166   -19.523928 
  123000    287.89657   -406.60641   -406.34591    6.4566689 
  123100    287.91604    -406.4805   -406.21998    21.243039 
  123200     293.3538    -406.4172   -406.15177    16.608502 
  123300    483.73526   -406.59577   -406.15808   0.45049802 
  123400    407.08579   -406.57875   -406.21041   -12.934776 
  123500    384.21642   -406.61472   -406.26707   -3.7198845 
  123600     228.2295   -406.51792   -406.31141    31.508217 
  123700    262.72591   -406.58343   -406.34571    -6.291379 
  123800    388.63226   -406.72978   -406.37813   -14.530279 
  123900    287.78309   -406.65282   -406.39243   0.56379538 
  124000    170.73697   -406.56937   -406.41489    11.195686 
  124100    275.05947    -406.6885   -406.43962   -2.1566727 
  124200    295.17548    -406.7415   -406.47442   -12.432763 
  124300    190.38339     -406.679   -406.50674     2.039071 
  124400    208.54075   -406.71064   -406.52194    15.598448 
  124500     243.3221   -406.73491   -406.51475   -20.897768 
  124600     282.9479   -406.72602      -406.47    5.5662665 
  124700    213.18817   -406.58976   -406.39686    7.1239797 
  124800    356.22538    -406.6357   -406.31338   -3.6328477 
  124900    368.53632   -406.59275   -406.25929   -6.5761456 
  125000    358.11025   -406.55805   -406.23403   -6.8129057 
  125100    259.43281   -406.48729   -406.25255    13.339043 
  125200    362.50935   -406.64879   -406.32078   -1.2472381 
  125300     259.6826   -406.66058   -406.42561   -22.149258 
  125400    271.83791   -406.76279   -406.51682    14.320404 
  125500    191.83556     -406.713   -406.53942  -0.40247084 
  125600    266.22487   -406.77677   -406.53588   -3.7364935 
[...]
 1803200    334.56444   -406.64947   -406.34675    16.379901 
 1803300    294.31244   -406.56663   -406.30033   -25.311479 
 1803400    371.31374    -406.6077   -406.27172    35.203094 
 1803500    445.34376   -406.69875   -406.29579   -19.483829 
 1803600     327.4681   -406.62542   -406.32912   -7.0464292 
 1803700    223.49039   -406.58885   -406.38663    14.278448 
 1803800    192.12581   -406.61123   -406.43739    11.943115 
 1803900    198.11389   -406.68752   -406.50826   -29.137251 
 1804000    113.26434   -406.69406   -406.59158    35.785091 
 1804100    88.188257   -406.72724   -406.64745   -19.404047 
 1804200    133.36734   -406.78238   -406.66171    9.0882637 
 1804300    130.20282   -406.75481     -406.637   -1.0657164 
 1804400    182.54383   -406.76893   -406.60376    2.2180916 
 1804500    248.86169   -406.78726   -406.56209   -14.241033 
 1804600    247.85943   -406.75528   -406.53101    3.9532135 
 1804700     290.9169   -406.73825   -406.47503   -8.3600531 
 1804800    339.47326   -406.71906    -406.4119   -9.1309899 
 1804900    284.58987   -406.60911    -406.3516   -11.090693 
 1805000    367.56305   -406.63008    -406.2975    26.717307 
 1805100    348.17121   -406.59547   -406.28044   -24.367622 
 1805200     476.4327   -406.70361   -406.27252   -6.0002015 
 1805300    357.03949   -406.63927   -406.31621    37.959755 
 1805400    286.28741   -406.66436   -406.40532    -28.08234 
 1805500     295.1842   -406.78979    -406.5227    6.9792479 
 1805600    195.58395   -406.73391   -406.55694    12.794582 
 1805700    181.73051   -406.72061   -406.55618   -19.363874 
 1805800     247.9389   -406.74973   -406.52539    16.180296 
 1805900    161.72239   -406.61903    -406.4727   -12.724493 
 1806000    314.88784   -406.70408   -406.41917    11.397162 
 1806100    283.90708   -406.61792   -406.36104   -7.0177994 
 1806200    310.06359   -406.63139   -406.35084   -11.612199 
 1806300    352.68542    -406.6519   -406.33278    33.336152 
 1806400     306.3001   -406.61949   -406.34235   -35.658374 
 1806500    281.86453   -406.61152   -406.35648    24.087033 
 1806600    236.99837   -406.58978   -406.37533     8.090655 
 1806700    250.10947   -406.64175   -406.41544   -6.8882795 
 1806800    242.18519   -406.69855   -406.47941    1.6786034 
 1806900    145.09654   -406.69964   -406.56835    7.6036785 
 1807000    205.15518   -406.78605   -406.60042   -11.608566 
 1807100    205.60054   -406.79177   -406.60574    8.0452814 
 1807200     204.3317   -406.75411   -406.56922   -20.553816 
 1807300    305.29672   -406.77856   -406.50232    25.289095 
 1807400    308.92132   -406.70724   -406.42773   -46.288913 
 1807500    352.30289   -406.71187    -406.3931    25.381588 
 1807600    375.71406   -406.71178   -406.37182  -0.71603255 
 1807700    326.72657   -406.64237   -406.34674   -22.584993 
 1807800    396.50946   -406.70765   -406.34888    18.310494 
 1807900    288.95691   -406.59821   -406.33675    15.074643 
 1808000    306.02006   -406.62839    -406.3515   -33.412225 
 1808100    342.90412   -406.68375   -406.37348     40.78853 
 1808200    198.95903   -406.60649   -406.42647   -27.494953 
 1808300    225.13393   -406.68857   -406.48487     22.50514 
 1808400    224.98525   -406.72978   -406.52621   -18.987587 
 1808500    172.85649   -406.70244   -406.54603    7.8103647 
 1808600    238.55609   -406.74584   -406.52998    0.7027201 
 1808700    179.43896   -406.64485   -406.48249   -8.4494262 
 1808800    318.94285   -406.65113   -406.36254  0.035605785 
 1808900    195.79305   -406.45781   -406.28065    24.567844 
 1809000    277.79075   -406.49919   -406.24784   -23.827182 
 1809100    338.35426   -406.57477   -406.26862     34.25762 
 1809200    178.90457   -406.46368    -406.3018   -21.155278 
 1809300    167.72254   -406.50222   -406.35047    30.512944 
 1809400    209.82605   -406.60798   -406.41813    1.4945208 
 1809500    151.85264   -406.59697   -406.45957   -10.818228 
 1809600    182.75222   -406.66927   -406.50392    20.052809 
 1809700    184.75056   -406.69084   -406.52368   -5.9372601 
 1809800    248.02408   -406.78287   -406.55845    -11.91795 
 1809900    192.83444   -406.75448      -406.58    12.376014 
 1810000    189.76468   -406.75618   -406.58448   -16.663619 
 1810100    276.29307   -406.80479    -406.5548    7.8602903 
 1810200    254.03666   -406.71165   -406.48179   -10.588568 
 1810300    314.27458   -406.68251   -406.39814     13.57965 
 1810400    427.25364   -406.70706   -406.32047  -0.13625609 
 1810500    304.64794   -406.56111   -406.28546   -17.071894 
 1810600    332.08983   -406.55789   -406.25741    47.583139 
 1810700    292.59575    -406.5505   -406.28575   -25.561673 
 1810800    408.70474   -406.71122   -406.34141   0.25543185 
 1810900    259.70484   -406.67557   -406.44058     14.46349 
 1811000    253.84965   -406.75118   -406.52149   -10.646904 
 1811100    304.52979   -406.82894    -406.5534   -16.439802 
 1811200    233.40538   -406.76534   -406.55415    16.327119 
 1811300    243.49222   -406.74049   -406.52017   -21.351659 
 1811400    336.24604   -406.79705   -406.49281    3.0553749 
 1811500    218.88462   -406.65385    -406.4558   -8.5279178 
 1811600    249.75479   -406.66306   -406.43707    20.988455 
 1811700    296.82594   -406.66419   -406.39561   -23.451476 
 1811800    245.54332      -406.59   -406.36782    13.707788 
 1811900    232.57721   -406.55336   -406.34292    15.625648 
 1812000    339.08824   -406.61121    -406.3044   -8.2284673 
 1812100    393.18331    -406.6347   -406.27894   -7.4363669 
 1812200    255.76669   -406.45871   -406.22729    33.541392 
 1812300    251.75183   -406.45233   -406.22454   -26.107536 
 1812400    456.91565   -406.63465   -406.22122    36.519345 
 1812500    268.16962   -406.54322   -406.30058   -26.342424 
 1812600    198.42244   -406.56238   -406.38284    23.311333 
 1812700    239.59302   -406.67202   -406.45523  -0.68006006 
 1812800    158.54443   -406.63414   -406.49069   -2.3756809 
 1812900    227.88354   -406.70708   -406.50088    3.9693834 
 1813000     221.1762   -406.68832    -406.4882    11.090204 
 1813100    262.40362    -406.6583   -406.42088   -17.747905 
 1813200    312.34114   -406.58284   -406.30022    30.420863 
 1813300    334.80074    -406.4724   -406.16946   -16.284818 
 1813400    431.74979   -406.55568   -406.16502    12.114276 
 1813500    433.41326   -406.58936    -406.1972   -5.2358467 
 1813600    336.07844   -406.56594   -406.26184   -4.9571409 
 1813700    387.89008   -406.68021   -406.32924     4.847878 
 1813800    326.54356   -406.66639   -406.37092   -2.5922098 
 1813900    326.31911   -406.70479   -406.40953   -18.099383 
 1814000    299.69645   -406.69122   -406.42005    21.056304 
 1814100    294.73299   -406.70665   -406.43997   -25.111188 
 1814200    321.76042   -406.71533   -406.42419    5.6578139 
 1814300    345.92047   -406.70633   -406.39333   -5.1489691 
 1814400     358.4633   -406.58617   -406.26183   -11.713191 
 1814500    608.26264   -406.66395   -406.11358   -2.2960642 
 1814600    448.49496   -406.47921    -406.0734   -23.971111 
 1814700    533.33545    -406.6213   -406.13873    12.933342 
 1814800    387.61577   -406.62219   -406.27147   -9.4242533 
 1814900    369.29594   -406.68722   -406.35307   -2.6092735 
 1815000    274.14897   -406.65612   -406.40806   -2.5163122 
 1815100    327.03595   -406.70973   -406.41383    11.675832 
 1815200    227.96164   -406.63708   -406.43081   -10.577899 
 1815300    299.68209   -406.69032   -406.41916    13.148669 
 1815400    257.93524   -406.63673   -406.40334   -10.965303 
 1815500    269.12177   -406.60112   -406.35761    23.122491 
 1815600    406.87974   -406.60596   -406.23781   -24.141437 
 1815700    461.85351   -406.54281   -406.12492    21.179989 
 1815800    375.12354   -406.41219   -406.07277    3.9544388 
 1815900    410.59876   -406.52951   -406.15799    5.0129675 
 1816000    375.36859      -406.62   -406.28036   -18.847352 
 1816100    254.86415   -406.60814   -406.37753    25.139168 
 1816200     262.1985   -406.64238   -406.40514    -14.25456 
 1816300    318.49245   -406.69862   -406.41044    8.9420574 
 1816400    223.41784   -406.61417   -406.41202   -16.108637 
 1816500    261.39141   -406.64488   -406.40837    26.057292 
 1816600    376.18156   -406.73822   -406.39785    -25.26315 
 1816700    299.69467   -406.61658   -406.34541    5.9441696 
 1816800    259.81543    -406.5155   -406.28041    6.1369133 
 1816900    413.40909   -406.54289   -406.16883    14.323345 
 1817000     425.7233   -406.48945   -406.10424   -37.914572 
 1817100    430.86338   -406.50604   -406.11619    29.725415 
 1817200     335.5267   -406.56076   -406.25716   -11.110967 
 1817300    315.72765   -406.68132   -406.39564    8.0712392 
 1817400      293.018   -406.70921   -406.44408    -23.82315 
 1817500    224.83469   -406.66259   -406.45916    20.501923 
 1817600    320.47181   -406.73942   -406.44945   -7.1939715 
 1817700    311.64608   -406.71552   -406.43354   -21.867209 
 1817800    264.25891   -406.62409   -406.38499    12.830141 
 1817900    293.97894   -406.58433   -406.31833    7.7872744 
 1818000    466.48603   -406.64726   -406.22518   -30.899772 
 1818100    444.40438   -406.56264   -406.16054    2.9127008 
 1818200    385.02073   -406.49282   -406.14445    17.270799 
 1818300    391.88762   -406.58985   -406.23526   -8.6205143 
 1818400    355.71735   -406.73855   -406.41668   -2.3324734 
 1818500    205.32726   -406.66492   -406.47914   -4.2435295 
 1818600    253.99731   -406.73888   -406.50906    24.877332 
 1818700    207.99272   -406.68461   -406.49641   -28.069007 
 1818800    247.83405   -406.69656   -406.47231    11.843496 
 1818900     278.7585   -406.65378   -406.40155    17.657644 
 1819000    333.26581   -406.62721   -406.32567   -30.576415 
 1819100    391.65675   -406.61279   -406.25842  -0.88358986 
 1819200    420.56831   -406.61482   -406.23428    32.496001 
 1819300    346.23738   -406.57543   -406.26214   -46.009618 
 1819400    518.26651     -406.781   -406.31206    22.046627 
 1819500    214.72614   -406.59677   -406.40248   -14.096496 
 1819600    257.06748    -406.7361    -406.5035    15.211556 
 1819700    241.15237   -406.79386   -406.57566   -15.094674 
 1819800    162.66127   -406.72089   -406.57371    8.0793457 
 1819900    208.60879   -406.74591   -406.55715    8.6732311 
 1820000    234.45116   -406.72741   -406.51528   -9.3142191 
 1820100    232.78653   -406.66107   -406.45044   -3.9449293 
 1820200    359.41921   -406.70399   -406.37878     32.63774 
 1820300    301.77519   -406.58141   -406.30836   -51.001785 
 1820400     481.9124   -406.71547   -406.27943    30.129435 
 1820500    315.66719   -406.54184   -406.25621   -12.830079 
 1820600    412.72853   -406.65845     -406.285   -5.5167077 
 1820700    336.23067   -406.65594   -406.35172   -8.8599202 
 1820800    193.86332   -406.64065   -406.46524    3.1562174 
 1820900    189.92104   -406.70519   -406.53335  -0.67507257 
 1821000    218.32556   -406.74268   -406.54514   0.67246207 
 1821100    109.81961   -406.63084   -406.53148    -13.96908 
 1821200    194.66102   -406.66987   -406.49374    39.790978 
 1821300    158.26454   -406.59584   -406.45264   -34.704221 
 1821400    252.73907   -406.63287   -406.40419    23.440984 
 1821500    225.33301   -406.57967   -406.37579    12.634908 
 1821600    263.37153   -406.58479   -406.34649   -15.276784 
 1821700    289.03693   -406.59944   -406.33792    8.2625206 
 1821800    262.12994   -406.58406   -406.34688    5.9263277 
 1821900    294.03396   -406.61773   -406.35168  -0.16496383 
 1822000    369.13984    -406.6996    -406.3656   -1.2887358 
 1822100     219.3311   -406.57354   -406.37508   -15.466367 
 1822200    250.31582   -406.63948   -406.41299    34.088449 
 1822300     227.3057   -406.68945   -406.48378   -22.982491 
 1822400    208.97451   -406.76547   -406.57638   -2.4171073 
 1822500    137.71984   -406.73474   -406.61013     29.04939 
 1822600     158.1955   -406.75083   -406.60769   -30.949172 
 1822700    229.91574    -406.7785   -406.57047     16.80433 
 1822800    267.94429   -406.73505   -406.49261    6.3264258 
 1822900    271.35424   -406.66728   -406.42175   -18.011999 
 1823000     388.6398   -406.70506   -406.35341    1.2748908 
 1823100    214.10661   -406.51972   -406.32599    5.1677975 
 1823200    372.28607   -406.63884   -406.30199   -1.5953083 
 1823300    418.12249   -406.68969   -406.31137   -12.562545 
 1823400    262.29779   -406.57251   -406.33518   -16.376068 
 1823500    249.39774   -406.62431   -406.39865     36.10452 
 1823600    249.71585   -406.72446   -406.49852   -40.911417 
 1823700    197.43576   -406.73612   -406.55748    13.090368 
 1823800    180.13732   -406.74095   -406.57796    11.886777 
 1823900    168.17393   -406.71431   -406.56214   -20.070622 
 1824000    231.54699   -406.73401    -406.5245    10.124758 
 1824100    158.14507   -406.60018   -406.45708    19.333004 
 1824200    274.27625   -406.66759   -406.41942    -24.45963 
 1824300    268.75678   -406.63624   -406.39306    18.888436 
 1824400    187.99231   -406.54473   -406.37463    -10.04435 
 1824500    260.86004   -406.60209   -406.36606    25.992442 
 1824600    333.93555   -406.65489   -406.35274   -35.762315 
 1824700      238.764   -406.56926   -406.35322    17.501702 
 1824800    349.31333   -406.64808   -406.33201    12.785081 
 1824900    323.58552   -406.62057   -406.32779   -17.100158 
 1825000     424.5772   -406.70643   -406.32226   -10.919206 
 1825100    276.26661   -406.59147    -406.3415    40.095163 
 1825200    345.27855   -406.68751    -406.3751   -29.708738 
 1825300    304.60569   -406.70092   -406.42531    14.397635 
 1825400    201.73249   -406.65525   -406.47272   -2.3146404 
 1825500    244.64687   -406.71695   -406.49559    18.904432 
 1825600    287.01626   -406.77521   -406.51552   -24.025251 
 1825700    202.67566   -406.68905   -406.50566    10.391561 
 1825800    286.99946   -406.71596   -406.45627    10.333539 
 1825900    383.27726   -406.67975   -406.33296   -24.098423 
 1826000      543.872   -406.73833   -406.24622   -28.829487 
 1826100    447.18919   -406.61402   -406.20939    40.115052 
 1826200    428.51782   -406.62158   -406.23385    -48.36485 
 1826300    465.93662   -406.72349    -406.3019  -0.85884697 
 1826400    301.01266   -406.64686   -406.37449   -2.8463739 
 1826500    277.62444   -406.68327   -406.43207    8.2613369 
 1826600    306.58244   -406.73351   -406.45611   -15.223601 
 1826700    240.58067   -406.67882   -406.46114    -6.523495 
 1826800    236.44036   -406.66691   -406.45297    29.154104 
 1826900    281.31955   -406.69892   -406.44438   -20.879793 
 1827000    333.09666   -406.72888   -406.42748   -12.531165 
 1827100    241.81485   -406.62003   -406.40123    39.930742 
 1827200    354.09896   -406.68844   -406.36804   -32.265971 
 1827300    434.67436   -406.72122   -406.32792    -14.47666 
 1827400     310.1901   -406.56515   -406.28449     39.30106 
 1827500    287.04034   -406.48448   -406.22476   -28.622851 
 1827600    610.26063   -406.72554   -406.17336     1.861621 
 1827700    381.13706   -406.48518   -406.14032   -12.804221 
 1827800    323.34849   -406.48117    -406.1886    29.769937 
 1827900    384.96433    -406.6616   -406.31328   -8.6822798 
 1828000    232.64956   -406.62446   -406.41395   -10.174149 
 1828100    155.53605   -406.60259   -406.46186    20.717683 
 1828200    262.53603   -406.71213   -406.47458    20.767024 
 1828300    204.61164   -406.65638   -406.47125   -40.512477 
 1828400     163.2663   -406.58388   -406.43615    56.065993 
 1828500    315.61086   -406.66547    -406.3799   -12.738387 
 1828600    387.28505   -406.61262   -406.26219   -23.166837 
 1828700    455.60479    -406.5626   -406.15036    15.934343 
 1828800    349.16859   -406.43609   -406.12016    16.079583 
 1828900    496.54248   -406.62043   -406.17115   -34.968512 
 1829000    521.02023   -406.71661   -406.24518    2.2769647 
 1829100    372.36167    -406.6275   -406.29058   -21.864669 
 1829200    355.04992   -406.65465   -406.33339    33.649907 
 1829300    405.56083    -406.7334   -406.36644   -47.602152 
 1829400    283.36005   -406.66454   -406.40815    6.2295938 
 1829500    247.84759   -406.66127   -406.43701    19.495683 
 1829600    264.75482   -406.70391   -406.46436   -18.671599 
 1829700     304.1101   -406.75395   -406.47879    -18.88407 
 1829800    174.01689    -406.6403   -406.48284     42.53874 
 1829900    288.03032    -406.7255   -406.46488   -35.914169 
 1830000    355.92815   -406.72451   -406.40246    4.2330493 
 1830100    302.57826   -406.59374   -406.31996    2.9883048 
 1830200    386.17057   -406.59127   -406.24185    18.347088 
 1830300    527.80727   -406.69369   -406.21612    -31.85056 
 1830400    344.82703   -406.53863   -406.22662   -2.4825533 
 1830500     282.4985   -406.57025   -406.31464    19.713158 
 1830600    281.27321    -406.6707    -406.4162   -0.1315433 
 1830700    271.12552   -406.73786   -406.49254   -25.977048 
 1830800    130.51734   -406.63199   -406.51389     38.18721 
 1830900    223.62394   -406.70522   -406.50288   -7.0145082 
 1831000    236.27941   -406.69582   -406.48203   -4.4247101 
 1831100    267.05327   -406.68252   -406.44088     16.12262 
 1831200    242.17833   -406.62403   -406.40491    11.686806 
 1831300    412.60552   -406.73416   -406.36083    -15.29091 
 1831400    283.22782   -406.58016   -406.32389   -1.5192429 
 1831500    363.21049   -406.63086   -406.30222    17.282983 
 1831600    392.11958   -406.64126   -406.28647   -11.354784 
 1831700    385.98473   -406.66496   -406.31571   -23.246089 
 1831800    292.40162   -406.66281   -406.39824    8.2299331 
 1831900    266.59402   -406.72597   -406.48475    6.0323227 
 1832000    253.08097    -406.7548   -406.52581   -29.240268 
 1832100    236.60912   -406.75753   -406.54344    16.933353 
 1832200    170.84241   -406.67414   -406.51956   -7.2884439 
 1832300    341.60398   -406.77729   -406.46819   -5.5506704 
 1832400    326.74404   -406.67104    -406.3754   -10.298921 
 1832500    317.71967   -406.58364   -406.29616    16.243022 
 1832600     385.4571   -406.61082   -406.26205   -14.461604 
 1832700     457.7799    -406.6766   -406.26239   -3.4158129 
 1832800    314.09339   -406.58439   -406.30019   -8.4122205 
 1832900    353.40417   -406.64943   -406.32966    21.064636 
 1833000     329.9314   -406.67849   -406.37996   -26.443417 
 1833100    333.07126   -406.71622   -406.41485    8.7222635 
 1833200    239.24153   -406.65739   -406.44092   -2.4488664 
 1833300    367.99088   -406.78031   -406.44735    6.6072963 
 1833400    247.20098   -406.65895   -406.43528    -16.02487 
WARNING: Wall time limit reached (../timer.cpp:262)
Loop time of 3599.6 on 1 procs for 1833400 steps with 8 atoms

Performance: 22.003 ns/day, 1.091 hours/ns, 509.334 timesteps/s
193.9% CPU use with 1 MPI tasks x no OpenMP threads

MPI task timing breakdown:
Section |  min time  |  avg time  |  max time  |%varavg| %total
---------------------------------------------------------------
Pair    | 3322       | 3322       | 3322       |   0.0 | 92.29
Neigh   | 0.0021408  | 0.0021408  | 0.0021408  |   0.0 |  0.00
Comm    | 0.8431     | 0.8431     | 0.8431     |   0.0 |  0.02
Output  | 0.82662    | 0.82662    | 0.82662    |   0.0 |  0.02
Modify  | 274.8      | 274.8      | 274.8      |   0.0 |  7.63
Other   |            | 1.108      |            |       |  0.03

Nlocal:    8 ave 8 max 8 min
Histogram: 1 0 0 0 0 0 0 0 0 0
Nghost:    0 ave 0 max 0 min
Histogram: 1 0 0 0 0 0 0 0 0 0
Neighs:    0 ave 0 max 0 min
Histogram: 1 0 0 0 0 0 0 0 0 0

Total # of neighbors = 0
Ave neighs/atom = 0
Neighbor list builds = 153
Dangerous builds = 0
System init for write_restart ...
WARNING: Pair style restartinfo set but has no restart support (../pair.cpp:711)
Total wall time: 1:00:01
