LAMMPS (7 Aug 2019)
#lammps input to simulate amorphous TiO2 using the MA potential

#Initialization
units metal
dimension 3
atom_style atomic #Atomic system with charges

read_data conf.lmp
  orthogonal box = (-20 -20 -20) to (20 20 20)
  1 by 1 by 1 MPI processor grid
  reading atoms ...
  8 atoms
  read_data CPU = 0.000165939 secs

#Interatomic potentials - DeepMD
pair_style	deepmd ./graph1.pb ./graph2.pb ./graph3.pb
#pair_style	deepmd graph1.pb
pair_coeff


#MD parameters
timestep 0.0005 #ps
velocity all create 300.0 1815191 mom yes rot yes dist gaussian

#Run MD - equil at 330K
run_style verlet #Velocity verlet
fix 1 all nvt temp 300 300 0.1 #NH thermostat - 330K with 100 fs frequency
fix 2 all momentum 1 linear 0 0 0 #Remove total linear momentum of the system at each step
fix 3 all recenter INIT INIT INIT
fix 4 all plumed plumedfile plumed.in outfile plumed.out
thermo_style custom step temp pe etotal press #Setting printing
thermo 100 #Ouputing thermodynamic properties
dump 1 all atom 100 pos.lammpstrj
#dump 2 all custom 100 vel.xyz id type vx vy vz
timer timeout 0:20:00 every 100
New timer settings: style=normal  mode=nosync  timeout=00:20:00
run 20000000 #10 ns
Neighbor list info ...
  update every 1 steps, delay 10 steps, check yes
  max neighbors/atom: 2000, page size: 100000
  master list distance cutoff = 7
  ghost atom cutoff = 7
  binsize = 3.5, bins = 12 12 12
  1 neighbor lists, perpetual/occasional/extra = 1 0 0
  (1) pair deepmd, perpetual
      attributes: , newton on
      pair build: full/bin/atomonly
      stencil: full/bin/3d
      bin: standard
Per MPI rank memory allocation (min/avg/max) = 3.701 | 3.701 | 3.701 Mbytes
Step Temp PotEng TotEng Press 
       0          300   -406.91312   -406.64168    18.426822 
     100     142.7599   -406.74357    -406.6144   -55.653478 
     200     237.9085   -406.74918   -406.53391    53.531904 
     300    226.28519   -406.62769   -406.42295   -36.015268 
     400    249.77343   -406.59194   -406.36594    1.3362661 
     500    137.16002   -406.46215   -406.33804    46.456365 
     600    218.69761   -406.49093   -406.29305   -13.628543 
     700    326.44499   -406.58169   -406.28632   -5.2000204 
     800    312.71346   -406.60666   -406.32371    29.582164 
     900    273.74089   -406.62408   -406.37639   -37.024197 
    1000    429.58161   -406.85484   -406.46614    19.862675 
    1100    222.89322   -406.68605   -406.48437      -37.729 
    1200    196.80618   -406.67245   -406.49437    19.141005 
    1300    226.82435   -406.70287   -406.49764   -4.4403483 
    1400    257.71034   -406.73435   -406.50117   -6.7929619 
    1500    226.43845   -406.63289     -406.428    31.776975 
    1600    197.24159   -406.41352   -406.23505    18.563071 
    1700    496.56704   -406.43747   -405.98816   -16.728086 
    1800    533.36595   -406.49841   -406.01581    26.256789 
    1900      450.861   -406.52449   -406.11654   -14.876875 
    2000    428.59717   -406.62585   -406.23805    36.141858 
    2100    258.13175   -406.59093   -406.35736   -24.216783 
    2200    378.05339    -406.7021   -406.36003    5.2739268 
    2300    339.60867   -406.73234   -406.42506   -4.9459762 
    2400    300.29628   -406.66347   -406.39175    1.1900985 
    2500    257.38388   -406.62276   -406.38988   -9.0541883 
    2600    218.42679    -406.6248   -406.42717    6.5859878 
    2700    335.01466   -406.69729   -406.39416   -1.6284624 
    2800    395.62433   -406.78612   -406.42815  -0.24003121 
    2900    297.33547   -406.62009   -406.35106   -7.0005237 
    3000    321.89579   -406.55421   -406.26295    16.350351 
    3100    401.02081   -406.59571   -406.23286   -12.847256 
    3200    362.10702   -406.44379   -406.11614   -12.223885 
    3300    394.70702   -406.46513   -406.10799    19.940622 
    3400    456.83515   -406.65619   -406.24284   -18.071056 
    3500      362.566   -406.69442   -406.36636   -8.4354225 
    3600    216.00121   -406.60409   -406.40864    21.176813 
    3700     220.7496   -406.61055   -406.41081   -20.249838 
    3800    193.82622   -406.57842   -406.40304    7.2592526 
    3900    313.65046   -406.67414   -406.39034    12.413618 
    4000     337.8662   -406.65774   -406.35203    -10.48292 
    4100    223.34788   -406.48262   -406.28053    2.5368646 
    4200    355.94596   -406.47465   -406.15258    15.061781 
    4300      410.044   -406.60312   -406.23211   -24.276637 
    4400    180.21722   -406.44219   -406.27913    6.5989249 
    4500    490.82989   -406.74561    -406.3015    4.2434207 
    4600    382.36325   -406.68886   -406.34289   -1.9587759 
    4700    285.37173   -406.70759   -406.44938    2.0674925 
    4800    161.42682   -406.62683   -406.48077    12.765887 
    4900    368.07989   -406.84417   -406.51112   -19.316821 
    5000    140.60358   -406.52229   -406.39507    11.227558 
    5100    479.33748   -406.63138   -406.19766   -4.5685925 
    5200    616.85304    -406.6827   -406.12456   -7.2059682 
    5300    333.29507   -406.62503   -406.32346    12.442652 
    5400    374.25371    -406.7409   -406.40227   0.20358066 
    5500     250.3396   -406.66934   -406.44283   -29.543897 
    5600    255.23494   -406.64636   -406.41542    24.428322 
    5700    284.70513   -406.72816   -406.47056   -11.390191 
    5800    298.24469   -406.60102   -406.33116   -14.552422 
    5900    595.29446   -406.77756   -406.23893    19.997943 
    6000    440.29246   -406.54848   -406.15009   -3.6578365 
    6100    315.87918   -406.51697   -406.23115   -23.250306 
    6200    219.13211   -406.57055   -406.37227    28.315502 
    6300    345.08875    -406.6979   -406.38565   -9.5646664 
    6400     113.8024   -406.47454   -406.37157    1.5179014 
    6500    360.88611   -406.85257   -406.52603    3.4386686 
    6600    176.14756   -406.58689   -406.42751    5.7498948 
    6700    412.90758   -406.56368   -406.19007   -10.837212 
    6800    524.80303   -406.60543   -406.13058    8.9020688 
    6900     427.7247   -406.48864   -406.10163   -19.625474 
    7000    169.69308   -406.33588   -406.18233    31.863412 
    7100    389.62433   -406.69285   -406.34031   -24.625734 
    7200    365.49201   -406.70613   -406.37543   -12.689236 
    7300    306.56659   -406.66654   -406.38916    28.508952 
    7400     425.7165   -406.78989   -406.40469  -0.83375331 
    7500    171.61462   -406.52829   -406.37301   -31.208621 
    7600    159.10357   -406.51108   -406.36712    55.677283 
    7700    317.17305   -406.68807   -406.40109   -43.930357 
    7800    216.57668   -406.53011   -406.33414    13.979617 
    7900    203.24217   -406.60895   -406.42505    19.877296 
    8000    336.45546   -406.52911   -406.22468   -31.683359 
    8100    540.37862   -406.64321   -406.15427    21.172467 
    8200    706.70154   -406.64408   -406.00465    22.904566 
    8300    438.09406    -406.5842   -406.18781   -42.822564 
    8400     370.4027   -406.65853   -406.32338    27.782704 
    8500    272.18232   -406.59289   -406.34661   -13.851045 
    8600    234.98667   -406.56267   -406.35005   -17.331691 
    8700    163.07903   -406.52015    -406.3726    28.464333 
    8800    347.78922    -406.6849   -406.37022   -12.276985 
    8900    376.60663   -406.70352   -406.36275   -16.026614 
    9000    314.04314   -406.64731   -406.36316    32.310783 
    9100    208.05581   -406.62697   -406.43871   -22.759596 
    9200    194.85004   -406.68513   -406.50882    1.3237608 
    9300    86.037666   -406.63301   -406.55516    1.3307464 
    9400    197.07823   -406.73707   -406.55875    4.2464629 
    9500    191.20049   -406.72801   -406.55501   -16.164707 
    9600    292.46905   -406.73234   -406.46771    23.971201 
    9700    455.96441   -406.71914   -406.30657   -14.568198 
    9800    406.50078    -406.4225   -406.05469  -0.49748481 
    9900     422.6077   -406.41098   -406.02859    16.061149 
   10000    470.91946   -406.56658   -406.14048   -5.6846287 
   10100    270.24415   -406.54616   -406.30164   -27.848869 
   10200    365.93331   -406.67527   -406.34416    46.164821 
   10300    323.27715   -406.65344   -406.36093   -32.443617 
   10400     350.1404   -406.74034   -406.42353    1.5406942 
   10500    226.71169   -406.62072   -406.41558    4.0471756 
   10600    142.81105   -406.51755   -406.38833   -8.0039117 
   10700    259.09936   -406.58238   -406.34794  -0.39369238 
   10800    283.43574   -406.51423   -406.25777   -4.4638576 
   10900    541.60868   -406.73901   -406.24895    1.7624328 
   11000    257.27442   -406.55085   -406.31806   0.36999876 
   11100    179.90852   -406.43165   -406.26887   -10.807316 
   11200    278.64024   -406.63326   -406.38114    16.680602 
   11300    174.99066   -406.60343    -406.4451   -21.407056 
   11400    224.63919    -406.6847   -406.48144    20.014866 
   11500    305.66232   -406.77299   -406.49642     -6.87387 
   11600    369.92483   -406.79512   -406.46041    -7.037919 
   11700    449.07091   -406.82068   -406.41435    32.195298 
   11800    338.49971   -406.72201   -406.41573   -15.845611 
   11900    266.59374   -406.55612    -406.3149   -5.1984867 
   12000    287.83722   -406.65942   -406.39897    15.775889 
   12100    390.07902   -406.70662   -406.35367   -22.931771 
   12200    253.79424   -406.64065   -406.41101    13.453998 
   12300    121.93901   -406.53542   -406.42509   -6.6188843 
   12400    181.95094   -406.69285   -406.52822   -4.0410066 
   12500    232.43374    -406.7225   -406.51219    1.2023382 
   12600    85.551887   -406.57984   -406.50243    7.7387481 
   12700    342.52519   -406.67468   -406.36476   -7.5912661 
   12800    275.80456   -406.42908   -406.17953    1.4492124 
   12900    461.02469   -406.39982   -405.98267   0.97604358 
   13000    835.04159   -406.70038   -405.94482   -9.4698821 
   13100    461.39176    -406.4842   -406.06673    -12.14943 
   13200    439.78576   -406.55861   -406.16068    27.333894 
   13300    240.49812   -406.44181    -406.2242   -29.587049 
   13400    456.28338   -406.70091   -406.28806    9.5113937 
   13500    291.82541   -406.65306   -406.38901    6.2199731 
   13600    101.05683   -406.56112   -406.46968     4.361353 
   13700    221.55898   -406.66144   -406.46097    7.6035073 
   13800     116.5115   -406.45564   -406.35022  -0.18517138 
   13900    371.17933   -406.62467   -406.28882   -8.0411025 
   14000    511.08637   -406.65555   -406.19311     33.75461 
   14100    420.51947   -406.43464   -406.05414   -41.275985 
   14200    658.85188   -406.50715   -405.91101    10.765174 
   14300    604.03608   -406.70628   -406.15974    24.145747 
   14400    232.14333   -406.54994   -406.33989   -23.150075 
   14500    477.00323   -406.78713   -406.35553    13.736389 
   14600    161.83227    -406.5553   -406.40887    1.8714859 
   14700    404.86563   -406.79138   -406.42505    -15.87391 
   14800    128.23398   -406.58024   -406.46421    16.354216 
   14900    378.48044   -406.78509   -406.44263   -11.963984 
   15000    194.77089   -406.59639   -406.42016   -4.2019884 
   15100    406.25857   -406.77026   -406.40267    10.117732 
   15200     214.8337   -406.54727   -406.35289   -16.601987 
   15300     549.8428   -406.78624   -406.28873    11.634767 
   15400    342.00045   -406.49874   -406.18929   -6.1820215 
   15500    474.61431   -406.57617   -406.14673   -11.342288 
   15600    290.65058   -406.42768   -406.16469    16.682363 
   15700    387.09286   -406.66893   -406.31868    -14.26629 
   15800    276.49197   -406.62635   -406.37618   -6.4063284 
   15900    365.82148   -406.75312   -406.42212    25.536325 
   16000    212.89377   -406.62782   -406.43519   -35.814566 
   16100    338.66441   -406.69831   -406.39188    29.729707 
   16200    207.66431   -406.59935   -406.41145   -3.6335699 
   16300    424.82458   -406.74111   -406.35672   -20.455279 
   16400    238.39707    -406.5486    -406.3329    26.752878 
   16500    440.43249   -406.65404   -406.25553    2.1478576 
   16600        264.2   -406.36519   -406.12614   -13.777862 
   16700    497.67167   -406.51802   -406.06771    1.1024503 
   16800     392.4827   -406.29902   -405.94389    11.389714 
   16900    305.54922   -406.41484   -406.13837    4.4248887 
   17000    310.61727   -406.58537   -406.30431    3.8891159 
   17100     204.7167   -406.43655   -406.25132    21.465951 
   17200    324.96547   -406.64032   -406.34629   -16.685078 
   17300    257.97231   -406.63345   -406.40003   -6.6727953 
   17400    269.59422   -406.66013   -406.41619    19.195549 
   17500    238.50321   -406.67258   -406.45678    4.6479101 
   17600    311.00298   -406.73451   -406.45311   -12.806913 
   17700    285.37687    -406.6995   -406.44128    -13.66324 
   17800    169.67822   -406.58175   -406.42822    10.552251 
   17900    246.72327   -406.61713   -406.39389    23.190902 
   18000    365.73454   -406.67327   -406.34235   -23.203272 
   18100    434.48194   -406.66601   -406.27288   -11.569389 
   18200    611.06344   -406.76294   -406.21004    3.1399814 
   18300    213.66276   -406.34634   -406.15302   -8.6654487 
   18400    279.45456   -406.41392   -406.16107    6.9303453 
   18500    334.48726    -406.5556   -406.25295    22.076452 
   18600    183.64307   -406.53941   -406.37325   -1.8189265 
   18700    330.89318   -406.69303   -406.39363   -1.4066723 
   18800    283.94132   -406.60331    -406.3464   -12.699815 
   18900    404.23638   -406.62367   -406.25791    15.690637 
   19000    416.15233   -406.77623   -406.39969    3.3173929 
   19100    346.02982   -406.75342   -406.44032   -18.550648 
   19200    246.54601   -406.69104   -406.46796    29.764908 
   19300    250.41858   -406.68716   -406.46058   -14.654418 
   19400     253.9157   -406.56361   -406.33386   -10.890143 
   19500    302.83439   -406.57396   -406.29995  -0.75469551 
   19600    285.60248    -406.6192   -406.36078  -0.67159355 
   19700    415.32883   -406.55376   -406.17797    -14.72586 
   19800    248.15304   -406.34124   -406.11671    10.510977 
   19900    358.30741   -406.61441   -406.29021   0.60811193 
   20000    395.32659   -406.72991   -406.37221    2.2886207 
   20100    306.80912   -406.66615   -406.38854   -16.383295 
   20200     157.6167   -406.62317   -406.48056    16.185054 
   20300    138.06198    -406.5777   -406.45278   -7.6464855 
   20400    300.17826   -406.75527   -406.48366   -6.0373132 
   20500    438.24976   -406.78683   -406.39029    12.325481 
   20600     287.5398   -406.58034   -406.32017   -6.3581008 
   20700    301.54483   -406.74809   -406.47524   -2.2264022 
   20800    196.05932   -406.63224   -406.45485    6.0751574 
   20900    156.93455   -406.65736   -406.51536   -6.1179813 
   21000    281.98271   -406.78027   -406.52512    17.298993 
   21100    90.878287   -406.54156   -406.45933   -32.445124 
   21200    382.46165   -406.64095   -406.29489    30.412339 
   21300    357.51459   -406.45796   -406.13447     -20.5184 
   21400    366.93165   -406.44534   -406.11333   -2.4066017 
   21500    292.73975   -406.43469   -406.16982    1.4561216 
   21600    123.17451   -406.51938   -406.40793 -0.094177531 
   21700    300.36739   -406.70937   -406.43759    7.6237397 
   21800     144.9565   -406.54629   -406.41513   -6.4743208 
   21900    113.05177   -406.57416   -406.47187   -12.391401 
   22000    247.05312   -406.65668   -406.43314    39.673874 
   22100    248.59971   -406.60439   -406.37945   -60.028678 
   22200    244.95546   -406.57934    -406.3577    38.142346 
   22300    316.37478   -406.58501   -406.29875    7.2239057 
   22400    376.05751   -406.58852   -406.24826   -27.370155 
   22500    405.69038   -406.65211   -406.28504    4.6095448 
   22600    171.66825   -406.49487   -406.33954    34.320045 
   22700    394.80921   -406.76346   -406.40622   -21.708642 
   22800    208.64536   -406.65312   -406.46434    4.4627507 
   22900    320.57322   -406.77536    -406.4853     18.96501 
   23000    256.39923   -406.70692   -406.47493   -13.696845 
   23100    311.90525   -406.74342    -406.4612    -12.37252 
   23200    266.53206   -406.63684   -406.39568    42.255013 
   23300    240.34592   -406.51292   -406.29545   -64.982286 
   23400     466.5165    -406.5269   -406.10478    77.579643 
   23500    588.24142    -406.5251   -405.99284   -63.872606 
   23600    526.77472   -406.55459   -406.07795   -11.304947 
   23700    278.34212   -406.42877   -406.17692    60.626592 
   23800    214.19433   -406.41442   -406.22061   -32.902082 
   23900    385.03779   -406.63195   -406.28356   -16.762535 
   24000    276.58091    -406.5608   -406.31054    43.404327 
   24100    272.88733   -406.61495   -406.36804   -52.484914 
   24200    286.77544   -406.66213   -406.40265    43.631592 
   24300    249.50043   -406.64268   -406.41692   -22.631457 
   24400    147.68159   -406.58056   -406.44693   -3.9646162 
   24500    353.96363   -406.75417    -406.4339    26.595578 
   24600    175.40804   -406.61386   -406.45515   -16.002932 
   24700    381.20933   -406.74459   -406.39966   -3.6002527 
   24800    382.89913   -406.67435    -406.3279     20.56331 
   24900    450.83803   -406.51884   -406.11091   -18.643724 
   25000    429.21773   -406.54164   -406.15328    26.761923 
   25100     402.1338   -406.51472   -406.15086   -24.400722 
   25200    261.16501   -406.61949   -406.38318   -5.4950559 
   25300    182.22003   -406.52924   -406.36436    12.779541 
   25400    253.56834   -406.55046   -406.32103   -20.896224 
   25500    284.18615   -406.66562   -406.40848    6.4361206 
   25600    185.15975   -406.56137   -406.39384    5.1683578 
   25700    141.08697   -406.53217   -406.40451   -20.788772 
   25800    181.64628   -406.59406    -406.4297    16.874645 
   25900    161.06493    -406.5713   -406.42556   -9.4138081 
   26000    155.07921   -406.58493   -406.44462   -9.0188759 
   26100    85.006892   -406.55153   -406.47461    7.2686229 
   26200    166.75754   -406.80132   -406.65043   -5.5873341 
   26300    125.77108   -406.71812   -406.60432  -0.38645191 
   26400    67.812596   -406.63247   -406.57111   0.56139628 
   26500    369.30173    -406.7934   -406.45925    10.154834 
   26600    526.29765   -406.75924   -406.28303   -19.651984 
   26700    337.74791   -406.51775   -406.21215     6.492639 
   26800    394.67094   -406.69586   -406.33875    12.534157 
   26900    348.53568   -406.70173   -406.38637   -25.684858 
   27000    237.06724   -406.59262   -406.37811    19.131143 
   27100    155.78539   -406.51949   -406.37853   0.42121877 
   27200     308.5389     -406.669   -406.38982  -0.43033703 
   27300    422.33456   -406.79213   -406.40999   -12.561371 
   27400    171.57605   -406.56656   -406.41131    17.631496 
   27500    377.03705   -406.81479   -406.47364    12.389902 
   27600    136.47123   -406.63111   -406.50763   -42.793462 
   27700    147.00192   -406.69506   -406.56205    49.614643 
   27800     270.1772   -406.84292   -406.59846     -19.6655 
   27900    174.10608   -406.71366   -406.55613   -30.077754 
   28000    157.62589   -406.63703   -406.49441    60.131991 
   28100    111.66522   -406.44169   -406.34066   -62.167017 
   28200    528.16807   -406.73623   -406.25834     34.15664 
   28300    371.00887   -406.51372   -406.17803    4.1141025 
   28400    258.59993   -406.38613   -406.15215   -52.481979 
   28500    398.65262   -406.40213   -406.04142    60.840909 
   28600    417.53649   -406.55319   -406.17539   -41.010544 
   28700    336.78493    -406.4089   -406.10417   0.32962111 
   28800    535.06252   -406.72622   -406.24208    39.103403 
   28900    211.88493   -406.39885   -406.20714   -49.274798 
   29000    479.71591   -406.74654   -406.31248    33.414776 
   29100    350.34616    -406.5155    -406.1985      1.53406 
   29200    304.10021   -406.45266   -406.17751   -29.423983 
   29300    292.75665   -406.66396   -406.39907    33.232298 
   29400    346.82761   -406.75569   -406.44187   -21.970295 
   29500    223.78128   -406.50472   -406.30223   0.72820904 
   29600    302.74971   -406.68517   -406.41123    12.930506 
   29700    295.51183   -406.68026   -406.41287   -22.112137 
   29800    280.16653   -406.60101   -406.34751    35.078198 
   29900    397.69317   -406.73153   -406.37168   -32.580588 
   30000    306.98602   -406.59236   -406.31459    -8.211472 
   30100    332.40343   -406.54475   -406.24399    41.227759 
   30200    221.20379    -406.5323   -406.33215   -39.878164 
   30300    460.89443   -406.71158   -406.29455    15.902335 
   30400    316.26993   -406.63269   -406.34652    12.462591 
   30500    434.45333   -406.62923   -406.23612   -33.946394 
   30600    476.43236   -406.62821   -406.19712    6.3371697 
   30700    331.45204   -406.40681   -406.10691   -3.6010844 
   30800    319.39111   -406.42488   -406.13589    1.9910182 
   30900    317.95021   -406.55454   -406.26685  -0.39621916 
   31000    310.10017   -406.64843   -406.36785    13.378836 
   31100    374.78508   -406.71044   -406.37133   -22.050251 
   31200    196.08347   -406.53912    -406.3617    11.099442 
   31300    272.87559   -406.61858   -406.37168     7.495685 
   31400    288.88813   -406.59399    -406.3326   -21.412354 
   31500    276.94863   -406.60797   -406.35738    14.306732 
   31600    173.50757   -406.49488   -406.33789    8.1410113 
   31700    220.13208    -406.6261   -406.42692   -30.502217 
   31800    223.22078   -406.70648    -406.5045     28.06216 
   31900    201.55607    -406.7211   -406.53872   -18.655622 
   32000    300.86754    -406.8304   -406.55817    17.078611 
   32100    255.97691   -406.75771    -406.5261   -20.327249 
   32200    208.52224   -406.65037   -406.46169      16.7882 
   32300    423.87225   -406.74064   -406.35711     6.202734 
   32400    173.39941   -406.38105   -406.22416   -45.870201 
   32500     403.0729   -406.64583   -406.28112     46.68073 
   32600    491.68574   -406.69916   -406.25427    4.6481238 
   32700      359.964    -406.5484    -406.2227   -47.839019 
   32800     254.6121   -406.50228    -406.2719    58.535891 
   32900    158.57565    -406.5048   -406.36132   -20.177189 
   33000    383.47356   -406.75237    -406.4054   -4.6295274 
   33100    220.08726   -406.69711   -406.49797   -2.2113646 
   33200    121.67374   -406.59743   -406.48733    20.621153 
   33300    297.03061   -406.69036    -406.4216    1.3719677 
   33400    317.11588   -406.70094   -406.41401   -23.539321 
   33500    320.46573   -406.51407   -406.22411    1.6021657 
   33600    255.99812   -406.36165   -406.13002    41.938359 
   33700    389.07288   -406.43909   -406.08705   -40.801878 
   33800    420.81304     -406.425   -406.04424    46.432709 
   33900    547.73492   -406.70141   -406.20581   -29.205924 
   34000    309.19502   -406.55223   -406.27247   -31.952149 
   34100    181.48385   -406.48483   -406.32062    48.470725 
   34200    276.54449   -406.55266   -406.30244   -6.4223213 
   34300    324.65837   -406.61001   -406.31625   -42.214399 
   34400    306.32663   -406.61568   -406.33851    47.151782 
   34500    164.31131   -406.51777    -406.3691   -21.384724 
   34600    411.11504   -406.76079   -406.38881    10.628773 
   34700    386.66723   -406.74589   -406.39603   -10.199635 
   34800    216.26139   -406.69055   -406.49487    -9.396979 
   34900    129.96866   -406.62753   -406.50993    19.723644 
   35000    177.94905    -406.7549   -406.59389    3.8727832 
   35100     249.9978   -406.73211    -406.5059   -23.821758 
   35200    179.49241   -406.63503   -406.47262     31.69288 
   35300    140.25088   -406.52069   -406.39379   -16.389318 
   35400    434.88269   -406.63703   -406.24354    14.495864 
   35500    445.26824   -406.53507   -406.13218    -11.23753 
   35600    372.96527   -406.50279   -406.16532   -2.0100377 
   35700    433.84087   -406.44368   -406.05113    16.632593 
   35800    287.75536   -406.39758   -406.13721   -17.674404 
   35900    440.69557   -406.67689   -406.27814   -12.793914 
   36000     300.9079   -406.57209   -406.29982    34.811382 
   36100    318.62359   -406.67798   -406.38968   -34.204679 
   36200    343.41234   -406.69344   -406.38272     18.92562 
   36300    368.17713   -406.74217   -406.40904   0.08597884 
   36400    264.15125    -406.6113   -406.37229   -12.309123 
   36500    400.60379   -406.74128    -406.3788    7.7859371 
   36600    195.20174   -406.57501   -406.39838    12.361084 
   36700    361.41275   -406.72128   -406.39427   -21.791055 
   36800    203.69652   -406.54378   -406.35947    31.440336 
   36900    353.13314   -406.73525   -406.41573   -26.972214 
   37000    181.47195   -406.61659   -406.45239    15.202206 
   37100    202.37762   -406.59916   -406.41604    3.1073125 
   37200    182.12951   -406.59243   -406.42764    2.0731489 
   37300    324.63022   -406.75369   -406.45996   -1.6011653 
   37400    209.16228   -406.64794   -406.45868  -0.75012029 
   37500    370.08218   -406.71133   -406.37647   -7.3427568 
   37600    186.17552    -406.4372   -406.26875    26.217769 
   37700    500.73926   -406.59365   -406.14057     -31.9516 
   37800    160.34832   -406.13635   -405.99126    20.692307 
   37900    439.45218   -406.37474   -405.97711    6.8477797 
   38000    459.39839   -406.46829   -406.05262   -5.0700833 
   38100    276.35334   -406.59847   -406.34842    -8.074477 
   38200    417.50969   -406.78519   -406.40741    8.4665365 
   38300    251.56202   -406.66879   -406.44118    -1.833141 
   38400    293.79035   -406.71203    -406.4462    1.6338528 
   38500    352.31386   -406.74785   -406.42907   -6.9954176 
   38600    116.47931   -406.47336   -406.36796    10.371321 
   38700    461.90025   -406.76843   -406.35049   -6.6095431 
   38800    216.30869   -406.45975   -406.26403    4.5249118 
   38900    437.97652   -406.57161   -406.17532   -7.0203382 
   39000    573.90421   -406.65183   -406.13255    7.1937126 
   39100    264.30315    -406.2628   -406.02366   -9.8392856 
   39200    508.14702    -406.7994   -406.33961  -0.31264676 
   39300    181.19171   -406.59936   -406.43542    3.6823311 
   39400     282.8984   -406.68507    -406.4291   -3.7554807 
   39500    235.59563   -406.63483   -406.42166    3.0528764 
   39600    197.06939   -406.62303   -406.44471   -5.8843593 
   39700    374.16264    -406.7585   -406.41995   -1.1374142 
   39800    199.64905   -406.54046   -406.35982    11.228147 
   39900    521.30677   -406.68059    -406.2089   -5.8013026 
   40000    341.10099   -406.46113    -406.1525   -8.1268263 
   40100     553.9183   -406.48383   -405.98263   -1.3661964 
   40200    566.25832   -406.37766    -405.8653   -1.2277295 
   40300    222.12803    -406.2714   -406.07042    2.2889258 
   40400    373.23825   -406.56521    -406.2275    13.441204 
   40500    505.81418   -406.62621   -406.16854    1.5599617 
   40600    334.68724   -406.53363   -406.23079   -28.437092 
   40700    287.10963   -406.49254   -406.23276    33.851138 
   40800     290.1567   -406.60586   -406.34332   -14.477393 
   40900    329.67026   -406.75348   -406.45519   -2.4645945 
   41000    272.97483   -406.67863   -406.43164    22.819068 
   41100    226.53811   -406.63627   -406.43129   -25.898482 
   41200    267.07812   -406.71784   -406.47618      17.7463 
   41300    289.36239   -406.66943    -406.4076    14.315624 
   41400    257.29607   -406.55763   -406.32483   -37.451545 
   41500    431.54887   -406.56835   -406.17788    33.955207 
   41600    444.49927   -406.48187   -406.07968   -20.754356 
   41700    668.47895   -406.65246   -406.04761     -14.3588 
   41800    353.46429    -406.5283   -406.20848    24.913237 
   41900    358.71926   -406.61506   -406.29048   -20.023553 
   42000    275.59423   -406.55427    -406.3049    11.957997 
   42100    327.52755   -406.65053   -406.35418    3.5457072 
   42200    272.72302   -406.57424   -406.32748   -38.052538 
   42300    156.51279   -406.53128   -406.38966    55.079202 
   42400    236.08055   -406.60818   -406.39457   -31.239568 
   42500    362.43586   -406.76688   -406.43894   -2.5486675 
   42600    204.56446   -406.64617   -406.46107    10.412321 
   42700    241.99981   -406.65018   -406.43121    -11.60034 
   42800    213.50811   -406.66144   -406.46825    5.4857342 
   42900    195.59728   -406.69841   -406.52143    9.3287469 
   43000    288.93226   -406.83095   -406.56952   -27.338588 
   43100    156.32307   -406.64946   -406.50801     30.75359 
   43200    259.27058   -406.63259     -406.398   -16.074264 
   43300    232.81865   -406.55376    -406.3431    12.281393 
   43400     406.2458   -406.53855   -406.17097   -6.4932811 
   43500    237.53904   -406.40994   -406.19501    24.370117 
   43600    319.57224   -406.44157   -406.15242   -4.3122896 
   43700    409.34687   -406.62024   -406.24986   -3.0351622 
   43800    310.56525   -406.68383   -406.40283   -3.0152499 
   43900    141.64122   -406.36532   -406.23716    20.474911 
   44000    452.65788   -406.75423   -406.34466   -16.608512 
   44100    254.16808   -406.61333   -406.38335    5.8262783 
   44200    332.91823   -406.67951   -406.37828   -8.4589694 
   44300    326.89933   -406.51998   -406.22419    13.569846 
   44400    322.98196    -406.6431   -406.35086   -20.933385 
   44500    288.92849   -406.50646   -406.24503    12.546516 
   44600    369.61009   -406.74001   -406.40557   -2.7134905 
   44700    249.13922   -406.63156   -406.40613   -13.409508 
   44800    205.48351   -406.56552   -406.37959    19.210228 
   44900    216.82087   -406.71056   -406.51438   -4.4492828 
   45000    307.02068    -406.8238   -406.54601   -7.5827276 
   45100    138.15012   -406.67984   -406.55483    15.686524 
   45200    204.15155   -406.74636   -406.56164   -18.159535 
   45300    184.33347   -406.46211   -406.29533    17.707682 
   45400    379.57412   -406.70392   -406.36047   -16.434046 
   45500    193.66273   -406.21419   -406.03896    4.7035066 
   45600    625.63849   -406.71817   -406.15208    12.792888 
   45700    491.79365   -406.64267   -406.19768   -13.301338 
   45800    381.00203   -406.70381   -406.35907  -0.28931543 
   45900    353.84012   -406.73206   -406.41189    13.241297 
   46000    130.38363   -406.49437    -406.3764   -21.679218 
   46100    285.96162   -406.67581   -406.41706    26.994631 
   46200    221.94933   -406.55399   -406.35316   -1.5940991 
   46300    283.21501   -406.64403   -406.38778   -10.948152 
   46400     302.6559   -406.61686   -406.34301    22.768294 
   46500    260.05286   -406.43047   -406.19517    6.9057364 
   46600    464.57409   -406.47206    -406.0517   -14.984276 
   46700    431.22238   -406.32181   -405.93163    39.511112 
   46800    421.83472   -406.48786   -406.10618   -28.481992 
   46900    436.81929    -406.6866   -406.29136   -7.6747141 
   47000     342.3464   -406.65566   -406.34589    12.670005 
   47100    195.64944   -406.53658   -406.35955   -9.5178657 
   47200    413.52993   -406.78415   -406.40998   -6.4749871 
   47300    233.22954    -406.6325   -406.42146     2.835683 
   47400    234.20914   -406.62146   -406.40955   -18.063292 
   47500    206.55235   -406.53496   -406.34806     43.73645 
   47600    305.28529    -406.6166   -406.34037   -40.412959 
   47700    375.25691   -406.65657   -406.31703   -1.0103429 
   47800     240.2367   -406.32786   -406.11049    51.454091 
   47900    365.97428   -406.53171   -406.20056   -56.724663 
   48000    606.27753   -406.57799   -406.02942    3.4961824 
   48100    283.45953   -406.43707   -406.18059    37.419422 
   48200    354.11249   -406.44955   -406.12914   -35.768094 
   48300    549.33622   -406.73585    -406.2388    6.4335028 
   48400     243.3476   -406.58387   -406.36368    7.6459662 
   48500    330.95993   -406.64429   -406.34483  -0.33388417 
   48600     291.8043   -406.61716   -406.35313    4.1134325 
   48700    383.12098   -406.72775   -406.38109   -12.108144 
   48800    229.98004   -406.60372   -406.39563    15.314018 
   48900    230.20594   -406.63979    -406.4315   -1.4370474 
   49000    253.46285   -406.72994    -406.5006   -2.2129264 
   49100    237.61998   -406.67124   -406.45624   -2.5648549 
   49200    193.55804   -406.68764   -406.51251    2.9690092 
   49300    210.55469    -406.7432   -406.55269    13.601061 
   49400    195.04521   -406.78107   -406.60459   -22.817604 
   49500    171.73862   -406.66177   -406.50638    8.9373952 
   49600    257.50566   -406.76295   -406.52996    15.565367 
   49700    221.80375   -406.51763   -406.31694     -43.5557 
   49800    385.63882   -406.68269   -406.33376    39.878471 
   49900    309.76302   -406.50861   -406.22833   -3.1278024 
   50000    259.65824   -406.40718   -406.17224   -29.238585 
   50100    380.64969   -406.66273   -406.31831    36.663806 
   50200    342.49275   -406.60798   -406.29808   -21.478772 
   50300    302.47576    -406.5966   -406.32291    2.4507025 
   50400    353.94842    -406.7073   -406.38704  -0.43845936 
   50500    230.87674   -406.60089   -406.39199   -8.9137733 
   50600    145.39178   -406.65771   -406.52616    25.328315 
   50700    280.03739   -406.70475   -406.45136   -14.689069 
   50800    299.26346   -406.75857   -406.48779   -16.962682 
   50900     189.7787   -406.56061   -406.38889    26.092141 
   51000    406.54688   -406.56113   -406.19328   -13.758269 
   51100    624.70663   -406.62739   -406.06214   -3.1439204 
   51200    612.02554   -406.66885   -406.11508    3.6544192 
   51300    274.81268   -406.55515   -406.30649   -16.334169 
   51400    400.03517   -406.78671   -406.42475    31.857646 
   51500    317.81372   -406.55006    -406.2625   -32.369843 
   51600    217.03235   -406.45541   -406.25904     7.318047 
   51700    255.69073   -406.55832   -406.32697    12.320011 
   51800    275.94597    -406.6049   -406.35522   -32.000592 
   51900    308.44216   -406.59926   -406.32018    22.134937 
   52000    325.84043   -406.60163    -406.3068   0.84952852 
   52100    382.61485   -406.64361   -406.29741   -35.947123 
   52200    410.53137   -406.44463   -406.07317    55.904549 
   52300    550.50921   -406.54525   -406.04713   -23.327404 
   52400    339.19369   -406.46259   -406.15568   -24.669824 
   52500    219.33163   -406.52477   -406.32631    60.417341 
   52600     222.4866   -406.54516   -406.34385   -25.915898 
   52700     413.0566   -406.81866   -406.44492    2.8413969 
   52800    285.32375   -406.63774   -406.37958    1.6019003 
   52900     166.6215   -406.57738   -406.42661   -4.7064874 
   53000    253.43328   -406.56175   -406.33244    32.127401 
   53100    302.63534   -406.60183     -406.328   -48.399146 
   53200    483.05098   -406.66458   -406.22751    21.033353 
   53300    472.15107   -406.54418   -406.11697    3.0640711 
   53400    482.77082    -406.4879   -406.05108   -50.641335 
   53500    375.63341   -406.38953   -406.04965    68.613244 
   53600    332.73449   -406.52785   -406.22678   -20.607611 
   53700    448.04147   -406.76685   -406.36145   -29.543007 
   53800    234.29229   -406.56096   -406.34896    45.086401 
   53900     231.1309   -406.57669   -406.36756   -41.657347 
   54000    272.40242   -406.67959   -406.43311    24.418666 
   54100    301.30772   -406.56356   -406.29093   -1.1135174 
   54200    425.81965   -406.66912   -406.28383   -30.905487 
   54300    444.47046   -406.65405   -406.25188     26.21428 
   54400    453.32152    -406.7077   -406.29753   -9.1302739 
   54500    280.66811   -406.58592   -406.33197   -7.3555352 
   54600    217.57079    -406.4892   -406.29233    24.377168 
   54700    251.56896   -406.57653    -406.3489   -28.449867 
   54800    233.18631   -406.62791   -406.41691    34.670504 
   54900    266.57185   -406.60385   -406.36265   -22.645773 
   55000    227.48228   -406.52528   -406.31945   0.29895735 
   55100    382.83386   -406.74171   -406.39531    18.317401 
   55200    295.77926   -406.54855   -406.28092   -43.073392 
   55300     304.9097   -406.47126   -406.19537    28.601812 
   55400    662.78394   -406.63392   -406.03421    10.863813 
   55500    338.20396   -406.11372    -405.8077   -43.988197 
   55600    696.19751   -406.61397   -405.98404    48.128578 
   55700    399.55327   -406.54533    -406.1838   -49.115078 
   55800    580.07889   -406.79175   -406.26689     14.96349 
   55900    401.58338   -406.73863   -406.37527    19.363345 
   56000    391.34425   -406.66726   -406.31317   -41.995858 
   56100    288.56558    -406.5694    -406.3083    26.939617 
   56200    212.53727    -406.5468    -406.3545   -6.1340435 
   56300    225.81979   -406.58831   -406.38399   -7.5167786 
   56400    284.40708   -406.77081   -406.51347    24.550537 
   56500    182.52806   -406.43317   -406.26801   -23.192048 
   56600    340.21825   -406.46216   -406.15433    46.755601 
   56700    416.97429   -406.52651   -406.14922   -39.722152 
   56800    458.90728   -406.54522   -406.12999   -0.9998521 
   56900    346.33955   -406.58282   -406.26944    39.129978 
   57000    255.10715   -406.70273   -406.47191   -55.269583 
   57100    286.78976   -406.73198   -406.47249    39.884138 
   57200    265.88458   -406.77112   -406.53054   -12.551643 
   57300    200.80068   -406.69878   -406.51709   -22.446342 
   57400    256.79734   -406.64522   -406.41287    43.357905 
   57500    257.63243   -406.56759   -406.33448   -37.991837 
   57600    361.92748   -406.48482   -406.15734    3.5072501 
   57700    489.86749   -406.65386   -406.21062     30.88922 
   57800    368.91426   -406.48495   -406.15115   -51.562955 
   57900    439.78773   -406.63148   -406.23355    28.842587 
   58000    284.24503   -406.59282   -406.33563   -19.497176 
   58100    169.25319   -406.52356   -406.37042    2.9003603 
   58200    342.02849   -406.74989   -406.44042    13.447601 
   58300    261.51433   -406.66435   -406.42773   -22.776955 
   58400    345.38397   -406.68122   -406.36871    6.9056148 
   58500    196.09319   -406.57679   -406.39936    27.690456 
   58600    254.23871   -406.45316   -406.22312   -18.248762 
   58700    342.37394   -406.51429    -406.2045    40.223448 
   58800    503.77438   -406.72008   -406.26425   -25.996402 
   58900    415.27016   -406.66658   -406.29084    -7.842122 
   59000    272.25464   -406.60537   -406.35902     12.79749 
   59100    297.14319   -406.72382   -406.45496   -1.7739634 
   59200    323.81384   -406.78047   -406.48747   -7.6122731 
   59300    221.31136   -406.70668   -406.50644   0.63760499 
   59400    126.79235    -406.5674   -406.45267   -3.5770743 
   59500    209.08569   -406.59344   -406.40426    20.794272 
   59600    380.25197   -406.66202   -406.31796   -19.688107 
   59700    496.38802    -406.5902   -406.14106    -27.75449 
   59800    663.34695   -406.62816   -406.02795    1.4649461 
   59900    562.95881   -406.41845   -405.90907    12.483387 
   60000    264.87945   -406.33196   -406.09229   -21.844434 
   60100    462.82274   -406.49354   -406.07477    27.537526 
   60200    369.83545   -406.40121   -406.06657   -7.6263026 
   60300    364.53521   -406.57869   -406.24885    -17.52294 
   60400    339.56135   -406.52127   -406.21403    18.487919 
   60500    312.16652   -406.64886   -406.36641   -6.1774565 
   60600    229.68173   -406.51292    -406.3051    1.1046517 
   60700    179.91451    -406.5424   -406.37961    5.1791715 
   60800    374.04579    -406.7029   -406.36445    -13.54241 
   60900    234.18943   -406.58513   -406.37323    16.547612 
   61000    437.95061   -406.72271   -406.32645   -8.7060347 
   61100    376.41002   -406.60928    -406.2687   -9.3531106 
   61200    381.80219   -406.51903   -406.17357    15.413308 
   61300    343.13998   -406.53579   -406.22531   -7.3566467 
   61400    300.63423   -406.59072    -406.3187    -1.409768 
   61500    343.14625   -406.65167   -406.34118   -1.3081047 
   61600    199.53801   -406.63435    -406.4538   -6.5667242 
   61700    172.12396   -406.63396   -406.47822    21.512056 
   61800    293.48455     -406.749   -406.48345   -23.554282 
   61900    162.58744   -406.60208   -406.45497    3.7363975 
   62000    335.18594   -406.69661   -406.39333    24.217481 
   62100    386.49271   -406.65759   -406.30788   -47.658114 
   62200    440.50552    -406.3993   -406.00072    36.969032 
   62300    552.12997    -406.5298   -406.03022    8.6677931 
   62400     419.8754   -406.42001    -406.0401   -32.849036 
   62500    509.17478   -406.46081    -406.0001    38.396026 
   62600       328.37   -406.43811   -406.14099   -35.632382 
   62700    282.26643   -406.46133   -406.20593    8.2988697 
   62800    288.36049   -406.58896   -406.32804    31.055654 
   62900    263.34127   -406.49467   -406.25639   -38.558165 
   63000    248.53694   -406.43429   -406.20941    16.008636 
   63100    318.70019   -406.68451   -406.39615    19.205844 
   63200    236.87815   -406.43301   -406.21867    -48.22896 
   63300     337.4586   -406.68614    -406.3808    44.765543 
   63400    130.20537   -406.46183   -406.34401   -17.214678 
   63500    254.77936   -406.71627   -406.48574    5.9837147 
   63600    200.14515   -406.71882   -406.53772   -3.1735047 
   63700    122.12057   -406.58381   -406.47331   -6.7980119 
   63800    206.89054   -406.68532   -406.49812    21.801115 
   63900    219.62624   -406.59212    -406.3934   -27.648543 
   64000    319.75207   -406.65992    -406.3706    -5.289699 
   64100    257.63436    -406.6023   -406.36919    53.023184 
   64200    135.75874   -406.51445   -406.39161   -55.404607 
   64300    474.43836   -406.79589   -406.36661    28.865487 
   64400    242.73824   -406.54722   -406.32758   -16.495738 
   64500    280.71892   -406.59446   -406.34046    16.338825 
   64600    371.93423   -406.61293   -406.27639   -13.421599 
   64700    278.84585   -406.58383   -406.33153    4.1284563 
   64800    244.28511   -406.61218   -406.39114     -15.1345 
   64900    219.86248   -406.63728   -406.43834    37.723441 
   65000    183.46654   -406.66863   -406.50263   -38.130756 
   65100    203.63663   -406.71834   -406.53409    21.331794 
   65200    242.05345   -406.73477   -406.51576   -6.8998917 
   65300    231.94454   -406.69314   -406.48327   -10.055116 
   65400     240.2844   -406.49735   -406.27993    29.806007 
   65500    412.45217   -406.52997   -406.15677   -36.507332 
   65600    466.69755   -406.58841   -406.16614    6.3333455 
   65700    432.89997   -406.60873   -406.21704      25.3354 
   65800    417.40119   -406.63862   -406.26094   -42.061351 
   65900    207.50655   -406.52197   -406.33421    29.059979 
   66000    275.15949   -406.63254   -406.38357    3.6433356 
   66100    272.16051   -406.70017   -406.45392   -15.196134 
   66200    166.61628   -406.61437   -406.46361    20.249636 
   66300    238.96567   -406.63634   -406.42012   -11.730329 
   66400    293.20456   -406.62777   -406.36248    3.6383273 
   66500    334.71929   -406.68501   -406.38214    10.853884 
   66600    413.51698   -406.49041   -406.11625   -24.205725 
   66700    295.50619   -406.39225   -406.12487     16.22122 
   66800    542.81718   -406.42525    -405.9341   -8.3147158 
   66900    483.45262   -406.04396   -405.60652    16.747215 
   67000    414.99127   -406.30493   -405.92944    4.6955358 
   67100    356.78895   -406.37497   -406.05214   -8.8772911 
   67200    517.13656   -406.68868   -406.22077    17.278068 
   67300    277.84851   -406.45492   -406.20351   -30.018458 
   67400    301.44115   -406.69203   -406.41928    27.570214 
   67500    239.97578   -406.60673   -406.38959   -8.3521588 
   67600    279.52515   -406.65477   -406.40185   -11.388761 
   67700     242.1741   -406.69818   -406.47906     24.13727 
   67800    252.19451   -406.58091   -406.35271   -19.765365 
   67900    263.28235   -406.66388   -406.42566   -1.4978987 
   68000    275.33864   -406.55598   -406.30685    13.322116 
   68100    302.02304   -406.32566   -406.05238   -24.501174 
   68200    517.29492   -406.47148   -406.00342    15.822526 
   68300    535.59041   -406.55883   -406.07422   -13.025984 
   68400    597.95723   -406.64626   -406.10521   -5.5629386 
   68500    329.16395   -406.53882   -406.24099    10.802816 
   68600    367.93736   -406.67848   -406.34556     1.040343 
   68700    170.33651   -406.57484   -406.42071    1.6297097 
   68800    287.44682   -406.72535   -406.46526    4.4897353 
   68900    126.36917   -406.56407   -406.44973   -0.3056166 
   69000    241.79599   -406.63642   -406.41764     20.02419 
   69100    308.58329   -406.67801    -406.3988   -7.9925336 
   69200    407.57118   -406.69043   -406.32165    -11.61115 
   69300    531.66038    -406.6572   -406.17614   -14.789972 
   69400    367.43275   -406.47851   -406.14605    21.188541 
   69500    699.39805   -406.75118   -406.11835   -21.461435 
   69600     321.3237   -406.48489   -406.19415   -16.484604 
   69700    335.64127   -406.55164   -406.24794    7.0605778 
   69800    268.41895   -406.65415   -406.41128    -3.163882 
   69900    217.73083    -406.5073    -406.3103   -17.798563 
   70000    215.55831   -406.62024    -406.4252    29.598746 
   70100    294.80475   -406.67324    -406.4065    -29.51182 
   70200    231.50942   -406.47805   -406.26858    17.548966 
   70300    479.80165   -406.74182   -406.30769   -8.2280977 
   70400    208.11937   -405.77366   -405.58535    14.963809 
   70500    471.87839    -406.6624   -406.23544   -6.7714924 
   70600      504.474   -406.60674   -406.15028   -11.197278 
   70700    371.22103   -406.38596   -406.05008   -8.6019421 
   70800    388.79313   -406.68835   -406.33656    23.295313 
   70900    184.09863   -406.45986   -406.29328   -36.381993 
   71000    216.15152   -406.60602   -406.41044    47.849998 
   71100    253.28506    -406.6771   -406.44793   -29.327701 
   71200    231.49068   -406.62495   -406.41549    19.392558 
   71300    257.90132   -406.66602   -406.43267   -8.1678768 
   71400    221.92677   -406.42434   -406.22353    23.780412 
   71500    309.13845   -406.56918   -406.28946   -14.401615 
   71600    535.23319   -406.57666   -406.09237    11.603676 
   71700    476.44805   -406.55847   -406.12737   -19.506669 
   71800    378.43331    -406.2751   -405.93268    37.434031 
   71900    382.84872   -406.62733   -406.28092   -38.235467 
   72000    292.33701   -406.52586   -406.26134    14.638318 
   72100    123.02495   -406.36889   -406.25758   -12.226328 
   72200    330.49376   -406.69778   -406.39875      16.1622 
   72300     317.4082   -406.62161   -406.33442   -15.232046 
   72400    233.10362   -406.43038   -406.21947  -0.26287183 
   72500    430.10652    -406.5761   -406.18693    9.1572684 
   72600    419.57697   -406.57278   -406.19314    -5.174012 
   72700    182.31876   -406.48772   -406.32275    -25.49603 
   72800     334.2242   -406.80796   -406.50555     32.01883 
   72900    229.64526   -406.66976   -406.46197    -33.27546 
   73000    290.85367   -406.70417     -406.441    11.515168 
   73100    273.54554   -406.68391    -406.4364    6.0915024 
   73200    254.13832   -406.43316   -406.20321   -11.377136 
   73300    362.05978    -406.5572    -406.2296    17.711505 
   73400    464.83033   -406.76884   -406.34825   0.77121204 
   73500    177.43258   -406.54184    -406.3813   -4.7262335 
   73600    284.02483   -406.52415   -406.26716    28.705965 
   73700     115.5855   -406.65587   -406.55129   -20.334984 
   73800    217.51643   -406.80236   -406.60555    11.766376 
   73900    181.17405   -406.74892   -406.58499    1.5986426 
   74000    220.63513   -406.71742   -406.51779   -19.929184 
   74100    222.25948   -406.59593   -406.39482    19.888274 
   74200     365.2533   -406.75089    -406.4204   -19.693776 
   74300    287.29886   -406.45516    -406.1952    4.4633097 
   74400    489.79184   -406.75079   -406.30761   -12.787414 
   74500    465.98298   -406.69133    -406.2697   -10.168578 
   74600    193.01238   -406.30159   -406.12695     21.44704 
   74700    536.20944   -406.76117   -406.27599   -16.793462 
   74800    196.08904   -406.48095   -406.30352    -10.92045 
   74900    360.84045    -406.7839    -406.4574     28.56932 
   75000    249.35767   -406.72852   -406.50289   -37.931766 
   75100    189.73287    -406.6364   -406.46472     25.04313 
   75200    221.89093    -406.6776   -406.47683   -7.5198141 
   75300    273.12863   -406.73736   -406.49022    2.8871055 
   75400    147.22462    -406.4979   -406.36469    6.6362129 
   75500    323.93783   -406.69975   -406.40664    6.0577712 
   75600    324.21276   -406.53759   -406.24424   -12.352367 
   75700    436.39129   -406.60699   -406.21213    14.655595 
   75800     408.0138   -406.51286   -406.14368   -19.068636 
   75900    391.14023   -406.61239   -406.25848   -3.1804414 
   76000    329.35535   -406.51821    -406.2202    16.630364 
   76100    296.55226   -406.77935   -406.51103   -24.530031 
   76200    194.94447   -406.59932   -406.42293    5.0360814 
   76300    336.12026   -406.73383    -406.4297    12.561073 
   76400     332.8571   -406.71672   -406.41555    -31.19003 
   76500    273.77627   -406.70759   -406.45987    30.038269 
   76600    273.67146   -406.63667   -406.38905    -27.28316 
   76700    362.20878   -406.63771   -406.30997    14.233983 
   76800    303.81063   -406.61293   -406.33803    1.5008362 
   76900    231.44798   -406.56317   -406.35375   -27.419128 
   77000    227.74301   -406.56988   -406.36382    43.166596 
   77100    306.30669   -406.67613   -406.39897   -9.7457497 
   77200    234.44554    -406.5888   -406.37666   -31.542173 
   77300    288.30884   -406.72992   -406.46905    57.052462 
   77400    113.73625   -406.68896   -406.58605   -40.685012 
   77500    248.05672   -406.78505    -406.5606    21.825895 
   77600    142.78202   -406.72064   -406.59145   0.82926424 
   77700    176.06068   -406.66575   -406.50644   -16.812606 
   77800    288.70094   -406.69743   -406.43621    23.223249 
   77900     245.7049    -406.6072   -406.38489   -16.441688 
   78000    394.10228   -406.62145   -406.26486     13.42162 
   78100    278.31116   -406.44032   -406.18849   -17.973029 
   78200     483.8391   -406.70528   -406.26749   0.39513856 
   78300    482.17577   -406.76756   -406.33128    15.287225 
   78400    221.64873   -406.50385   -406.30329   -47.121133 
   78500    173.51282   -406.54809   -406.39109    36.220285 
   78600    253.54009   -406.76186   -406.53245   -4.5262006 
   78700    200.66583   -406.67094   -406.48938   -32.295609 
   78800    190.58191   -406.66432   -406.49188    36.726655 
   78900    166.47908    -406.6179   -406.46727    -10.47635 
   79000    372.93317   -406.73442   -406.39698   -11.810333 
   79100    333.27551   -406.64645   -406.34489    14.130725 
   79200    310.23545   -406.57304   -406.29233   -12.133613 
   79300    278.58384   -406.49244   -406.24038    27.378591 
   79400    391.16288    -406.6501   -406.29616   -19.223117 
   79500    264.66507   -406.55925   -406.31978    10.909321 
   79600    181.31807   -406.51575   -406.35169    20.422253 
   79700    298.80137   -406.69514   -406.42478   -26.749871 
   79800    220.65285   -406.64332   -406.44367    5.7766836 
   79900    246.83057    -406.7445   -406.52117    11.499574 
   80000    200.73596    -406.7123   -406.53067   -10.537267 
   80100    311.96226   -406.78748   -406.50521   -9.1497912 
   80200    131.04911   -406.57838    -406.4598      10.0314 
   80300    418.33602   -406.73267   -406.35415    9.4353292 
   80400    300.52589    -406.4815   -406.20958   -15.275484 
   80500    612.17697   -406.78638   -406.23247   -16.135278 
   80600    390.49545   -406.50531   -406.15198    2.6983996 
   80700    302.44111   -406.51906   -406.24541    6.9156138 
   80800    426.72485   -406.63769   -406.25158   -21.013393 
   80900    268.10274   -406.52866   -406.28607    2.5600586 
   81000     449.9338   -406.76857   -406.36146   -4.9563573 
   81100    200.24964   -406.50772   -406.32653    8.6286883 
   81200    398.58498   -406.73413   -406.37348   -15.865191 
   81300    182.79087   -406.53311   -406.36772    15.813272 
   81400    411.01293   -406.74443   -406.37253    1.2987695 
   81500    198.48497   -406.54585   -406.36625   0.21564181 
   81600    310.41171   -406.68479   -406.40392     2.285295 
   81700    206.24301   -406.62771    -406.4411    14.953191 
   81800    232.30479    -406.6896    -406.4794   -12.988326 
   81900     233.4542   -406.72837   -406.51714    8.5684077 
   82000    142.42061   -406.67844   -406.54957    6.3318178 
   82100    258.07086   -406.76632   -406.53282   -10.141308 
   82200    208.83762   -406.61422   -406.42526    1.2894587 
   82300    310.39195   -406.67542   -406.39457    9.6073414 
   82400    180.17841   -406.26009   -406.09706   -7.8534019 
   82500    569.99668   -406.74021   -406.22446    3.2480852 
   82600    134.96692   -406.26512     -406.143    4.8466418 
   82700    501.87575   -406.58787   -406.13376    8.6256312 
   82800     226.7246   -406.50155    -406.2964   -8.2509634 
   82900     319.0933   -406.42996   -406.14124  -0.51271154 
   83000    208.20071   -406.47977   -406.29139    17.841235 
   83100    402.25446   -406.73928   -406.37531   -17.188542 
   83200    177.09653   -406.51374    -406.3535  -0.34698449 
   83300    476.61244   -406.75574   -406.32449    14.831987 
   83400     442.9307   -406.77705   -406.37628   -26.322192 
   83500    306.60912    -406.7251   -406.44767      8.81518 
   83600    181.26548   -406.54873   -406.38471   -3.3834985 
   83700    408.34516   -406.77082   -406.40134    1.2252175 
   83800    217.69061   -406.53687    -406.3399   -9.1341815 
   83900    349.60899   -406.58758   -406.27124    9.4617821 
   84000    358.15283   -406.51075   -406.18669     18.94749 
   84100    569.19728   -406.60745   -406.09243   -33.063203 
   84200    503.71219   -406.62767    -406.1719    31.936486 
   84300    344.68028   -406.60552   -406.29364   -14.793722 
   84400    360.97743   -406.65973   -406.33311   -1.7598733 
   84500     202.9948   -406.61782   -406.43414    14.036553 
   84600    281.98925   -406.65959   -406.40444    -17.48014 
   84700     371.5712   -406.74268   -406.40648   -8.6446655 
   84800    383.36215   -406.69807    -406.3512    12.688316 
   84900    333.92983   -406.64208   -406.33994   -22.715373 
   85000    379.47047   -406.63992   -406.29656   0.63653757 
   85100     337.5012   -406.57461   -406.26923    14.153081 
   85200    340.06577   -406.54551   -406.23781   -2.9037245 
   85300    296.86253   -406.50563   -406.23702   -3.9315046 
   85400    285.22548   -406.58357   -406.32549    6.9274203 
   85500    170.59691   -406.53938   -406.38502    8.4689889 
   85600    256.95383   -406.66877   -406.43627    8.2134616 
   85700    267.28515   -406.73975   -406.49791   -23.843266 
   85800    186.55594   -406.59438   -406.42558    24.603893 
   85900    314.27681    -406.7476   -406.46323   -7.1287609 
   86000    313.71596   -406.55339   -406.26953   -18.461463 
   86100     305.9142   -406.62939   -406.35259    13.203231 
   86200    364.50951   -406.38715   -406.05733   0.68964308 
   86300    487.08291   -406.36557   -405.92484    3.6701039 
   86400     606.5571   -406.66521   -406.11638    -19.46716 
   86500    254.61726   -406.32548    -406.0951    25.379664 
   86600    404.05924   -406.49309   -406.12749   -12.891244 
   86700    317.07629   -406.60618   -406.31928    2.3671334 
   86800    320.69599    -406.6558   -406.36563    29.915299 
   86900    234.63009   -406.62827   -406.41597   -15.416581 
   87000    163.93904   -406.50533     -406.357    29.625984 
   87100     335.3401   -406.73421   -406.43079   -3.2350795 
   87200    216.33353   -406.62696   -406.43122  -0.75032024 
   87300    407.46552   -406.74096   -406.37228    18.380687 
   87400    400.21106   -406.59745   -406.23533   -40.169522 
   87500    410.87168   -406.56806    -406.1963    25.289018 
   87600    636.55167    -406.7143   -406.13834   -14.609671 
   87700    284.57793   -406.26839    -406.0109   -13.379993 
   87800    509.82522    -406.7329    -406.2716    2.0623245 
   87900    203.80996   -406.50348   -406.31907   -8.1849647 
   88000    282.44302   -406.63913   -406.38357   -1.9443927 
   88100    175.70998   -406.47821   -406.31922     10.44447 
   88200    320.14284   -406.69981   -406.41014   -20.677167 
   88300    254.67575   -406.64525   -406.41482    28.846606 
   88400    333.86258   -406.52056   -406.21848   -20.788134 
   88500    276.56489   -406.55468   -406.30443    4.2203754 
   88600    407.33308   -406.48783   -406.11926    11.577828 
   88700    396.28557    -406.5113   -406.15273   -18.065496 
   88800    490.56912   -406.57801   -406.13414   0.17227193 
   88900    333.31893   -406.42016   -406.11856    16.511166 
   89000    322.78496   -406.63253   -406.34047   -34.800511 
   89100    223.36306   -406.60105   -406.39895    42.551786 
   89200     254.6988   -406.63843   -406.40797   -31.452343 
   89300    178.81855   -406.57439   -406.41259    23.114556 
   89400    253.78216   -406.50675   -406.27713   0.46817989 
   89500     352.4793   -406.53439   -406.21546   -1.5775012 
   89600      310.881   -406.56775   -406.28646    16.734181 
   89700    241.88821   -406.56012   -406.34126    3.6198751 
   89800    277.68977   -406.69852   -406.44726   -11.545294 
   89900    147.80755    -406.5677   -406.43396    19.602921 
   90000    240.38644     -406.676   -406.45849   -15.269109 
   90100    218.04169   -406.69403   -406.49674     9.026998 
   90200    272.54677    -406.6713   -406.42469   -15.940763 
   90300     163.6293   -406.39787   -406.24982    9.6504908 
   90400    392.82065   -406.69292   -406.33749   -3.4708035 
   90500    482.17854   -406.47604   -406.03976   -5.7962514 
   90600    521.30635   -406.46333   -405.99164     -19.0821 
   90700    293.85992   -406.51882   -406.25292    9.5299554 
   90800    424.14978   -406.69305   -406.30927   0.45263894 
   90900    421.86915   -406.64798   -406.26626   -3.4506128 
   91000    219.53714   -406.46813   -406.26949   -3.0003077 
   91100    286.22704     -406.735   -406.47601     4.893056 
   91200    381.47591   -406.68717   -406.34201   -4.2608772 
   91300    265.38691   -406.50865   -406.26852   0.21783634 
   91400    287.97689   -406.57094   -406.31038   -3.1904309 
   91500    286.07038   -406.56389   -406.30504    7.4894119 
   91600    291.47095   -406.67331   -406.40958   -8.0893009 
   91700    363.02588    -406.5311   -406.20263    18.332081 
   91800     530.6555    -406.5192   -406.03906   -10.693814 
   91900    458.43203   -406.41658   -406.00178  -0.31165599 
   92000    655.72472   -406.66172   -406.06841    7.5248326 
   92100    365.45852   -406.57561   -406.24494    -22.46141 
   92200    263.18105   -406.48974   -406.25161    13.677095 
   92300    321.64407    -406.6613   -406.37027    23.147725 
   92400     293.7286   -406.51655   -406.25078   -33.446225 
   92500    365.01584   -406.59082   -406.26055    14.379985 
   92600    311.45528   -406.70142   -406.41961   -12.601978 
   92700    218.64463   -406.55999   -406.36215   -4.4270984 
   92800    347.69737   -406.48252   -406.16792    12.901716 
   92900    300.12874   -406.53847    -406.2669   -37.879605 
   93000    234.07717   -406.49134   -406.27954    37.285829 
   93100    474.07924   -406.78284   -406.35388  -0.89469365 
   93200    153.95275   -406.52119   -406.38189   -40.097757 
   93300    280.87304   -406.68745   -406.43331    45.839112 
   93400     219.2211    -406.6589   -406.46054   -24.808519 
   93500    304.13076   -406.75556   -406.48038   -3.8248771 
   93600    196.68366    -406.6288   -406.45083      7.38087 
   93700    165.23428   -406.43996   -406.29046   -14.002072 
   93800    448.36397   -406.76163   -406.35594    12.716398 
   93900      426.476   -406.65621   -406.27033    -17.43641 
   94000    483.60737   -406.50792   -406.07034    6.9782017 
   94100    517.50961    -406.5001   -406.03184    22.735599 
   94200    302.64827   -406.49854   -406.22469   -20.546526 
   94300    390.61523   -406.63177   -406.27834   -4.5572032 
   94400    249.06279   -406.64017   -406.41481    17.837501 
   94500    171.81214    -406.4882   -406.33274   -23.884695 
   94600    250.07363   -406.67741   -406.45113     9.680661 
   94700    250.90529   -406.48306   -406.25603   -16.042746 
   94800    224.54628   -406.59123   -406.38805    10.026815 
   94900    461.81195   -406.69895    -406.2811   -1.2875803 
   95000    277.28085   -406.35119    -406.1003   -36.549159 
   95100    402.21644    -406.4811   -406.11716    34.960006 
   95200    515.15466   -406.37873   -405.91261    12.076548 
   95300    275.32192   -406.47081   -406.22169   -59.787861 
   95400    400.86548   -406.73137   -406.36866    66.251187 
   95500    282.38125   -406.44457   -406.18907   -43.273569 
   95600    330.33578   -406.68376   -406.38486    3.8204549 
   95700    318.30387   -406.63551   -406.34751    18.389074 
   95800    170.33373   -406.54571   -406.39159    -32.74921 
   95900    298.39674   -406.58587   -406.31587    31.540718 
   96000    268.79461   -406.56676   -406.32355   -3.9928864 
   96100    300.95177   -406.57975   -406.30744   -32.836684 
   96200    477.79961   -406.74575   -406.31342    57.475259 
   96300     172.7724   -406.42871   -406.27238   -68.452178 
   96400    447.14879   -406.67179    -406.2672    53.555731 
   96500    432.73267   -406.65385    -406.2623    2.3741737 
   96600    205.91123   -406.46502   -406.27871   -31.946589 
   96700    316.29937   -406.60072   -406.31452    40.695561 
   96800    149.19778    -406.5787   -406.44371   -17.246227 
   96900    283.29854   -406.73974   -406.48341    5.7759901 
   97000    327.01472   -406.73335   -406.43746    13.002055 
   97100    230.95159   -406.66969   -406.46072   -43.020262 
   97200    293.60132   -406.57616   -406.31051    71.865121 
   97300    165.98292    -406.3588   -406.20862   -72.466692 
   97400    598.05213   -406.69612   -406.15499       19.338 
   97500    468.03606   -406.34579    -405.9223    41.471264 
   97600    282.94154   -406.35424   -406.09823   -42.467378 
   97700    577.71127   -406.57124   -406.04852     9.209822 
   97800    458.14196   -406.64592   -406.23138    31.746748 
   97900    186.75093   -406.42981   -406.26083   -46.251439 
   98000    347.57213   -406.67862   -406.36413    27.973967 
   98100    453.10934   -406.78353   -406.37355   -14.229264 
   98200    189.72441   -406.42911   -406.25744   -5.4458813 
   98300    253.69623    -406.5522   -406.32265    6.7971747 
   98400    226.06452     -406.639   -406.43446    4.5496802 
   98500    207.10431   -406.60457   -406.41718   -7.9315867 
   98600    239.46725   -406.73872   -406.52204    18.078126 
   98700    166.92554   -406.60846   -406.45742   -17.839443 
   98800    229.72722   -406.76078   -406.55292    14.400956 
   98900    267.13624   -406.62589   -406.38418  -0.23011323 
   99000    254.28865   -406.69114   -406.46105   -14.646108 
   99100    381.00844   -406.69539   -406.35064     32.76929 
   99200    502.85731   -406.73161   -406.27661   -10.212079 
   99300    336.28738   -406.46057   -406.15629   -28.413044 
   99400    338.82334   -406.48352   -406.17695    48.343413 
   99500    348.42129   -406.68542   -406.37016   -34.960254 
   99600     303.7637   -406.66413   -406.38928    16.330658 
   99700    236.37682   -406.72146   -406.50758   -22.877656 
   99800    141.13409   -406.67822   -406.55052    21.228303 
   99900    250.63138   -406.74486   -406.51808    -2.636917 
  100000    150.55512   -406.47357   -406.33734   -19.479478 
  100100    348.02644   -406.65362   -406.33872    32.818781 
  100200    306.56217   -406.43574   -406.15836    -4.285039 
  100300    352.96433   -406.46887    -406.1495   -23.949027 
  100400    309.33302   -406.33959    -406.0597    72.848065 
  100500    196.92364   -406.33068   -406.15249   -68.819691 
  100600    355.89702   -406.61491   -406.29288    44.347935 
  100700    414.02899   -406.75773   -406.38311    1.2242175 
  100800    155.16651   -406.57067   -406.43028   -30.943513 
  100900    315.45656   -406.73606   -406.45063    34.113578 
  101000    275.04234    -406.7344   -406.48554   -10.106218 
  101100    187.80284   -406.47421   -406.30428   -22.528443 
  101200    244.33772   -406.56589   -406.34481    46.432141 
  101300    314.50556   -406.45686   -406.17229    -46.63239 
  101400     643.9897   -406.62106   -406.03837    21.868948 
  101500     558.9131   -406.35706   -405.85135    6.5938743 
  101600    555.62997   -406.27152   -405.76877   -25.321544 
  101700    605.30955   -406.63264   -406.08494   -2.1448257 
  101800    332.02155   -406.52813   -406.22771    29.416857 
  101900    294.03775   -406.48449   -406.21844   -23.203379 
  102000    329.56547   -406.65362   -406.35542    2.1925221 
  102100    219.37881   -406.62765   -406.42915   -3.5254404 
  102200    280.98517   -406.68002   -406.42577   0.65246097 
  102300    304.39047   -406.75893   -406.48351   -10.183971 
  102400    294.49038   -406.70252   -406.43605   -7.5456867 
  102500    204.54705     -406.645   -406.45992      9.91367 
  102600    325.66691   -406.70556   -406.41089    9.2982206 
  102700    291.20881   -406.57031   -406.30682    -43.79188 
  102800    337.73509   -406.45462   -406.14903    69.355467 
  102900    378.09451   -406.33725   -405.99515    -38.95859 
  103000    415.45344   -406.55579   -406.17988    3.3636732 
  103100    300.80458   -406.37613   -406.10396    26.978183 
  103200    259.96126    -406.5842   -406.34898   -31.174488 
  103300    388.87768   -406.61971   -406.26785    16.550396 
  103400    277.31412   -406.62343   -406.37251    4.8410984 
  103500    272.16916   -406.65628   -406.41001    -26.53982 
  103600    348.53178   -406.67767   -406.36231    22.774332 
  103700    329.25572   -406.68025   -406.38233   -28.936127 
  103800    230.82143   -406.39059   -406.18174    17.706647 
  103900    310.38063   -406.62704    -406.3462   0.64418247 
  104000    251.97556   -406.40039    -406.1724   -9.3760809 
  104100    385.70242   -406.66093   -406.31194    8.1879904 
  104200    208.72027   -406.39378   -406.20492    18.896621 
  104300    264.82421     -406.649   -406.40938   -38.444191 
  104400    193.89748   -406.57238   -406.39694    23.794261 
  104500    272.37799   -406.71769   -406.47124    7.8108294 
  104600    211.36889   -406.67213   -406.48088   -34.069488 
  104700    292.81576   -406.54203   -406.27709    31.799167 
  104800    298.12107   -406.44713   -406.17739   0.20376907 
  104900    444.41118    -406.5147   -406.11258   -32.860727 
  105000    301.73538   -406.42266   -406.14964    56.918612 
  105100    470.25146   -406.54871   -406.12322   -5.6290929 
  105200    314.90257   -406.38439   -406.09946   -8.8068982 
  105300    400.53298   -406.68718   -406.32477    16.894245 
  105400    272.46936   -406.54502   -406.29848   -12.945141 
  105500    382.65099   -406.69645   -406.35022     10.74723 
  105600     254.7883   -406.58082   -406.35028   -13.168915 
  105700    300.30491   -406.65591   -406.38418  -0.34209758 
  105800    404.67572   -406.68627   -406.32011     14.74725 
  105900    273.45273   -406.61792   -406.37049   -41.840747 
  106000    284.59329    -406.4868   -406.22929    35.879272 
  106100    394.45426   -406.70566   -406.34875   -12.892264 
  106200     364.2433   -406.62469   -406.29511   -22.102612 
  106300    365.29554   -406.69242    -406.3619    19.017028 
  106400    298.98199    -406.6743   -406.40378    -2.942204 
  106500    255.96621   -406.62325   -406.39165   -14.239625 
  106600    268.86796   -406.72792   -406.48465    4.7046658 
  106700    219.66852   -406.74237   -406.54361    9.8382979 
  106800    322.03213   -406.80198    -406.5106   -5.1473764 
  106900    189.11818   -406.65004   -406.47892   -18.624497 
  107000    300.89101   -406.57579   -406.30354    39.147698 
  107100    596.37939   -406.74771   -406.20809   -26.689556 
  107200      478.243   -406.38718   -405.95445   -10.413665 
  107300    479.64012   -406.52277   -406.08879    30.001804 
  107400    283.73005   -406.40982   -406.15309    -7.438292 
  107500    420.70385   -406.68418   -406.30352   -12.036844 
  107600    367.61312   -406.67503   -406.34241    4.7889672 
  107700    223.57263   -406.58119    -406.3789   -12.631872 
  107800    220.66075   -406.59441   -406.39475     15.07939 
  107900    224.58666   -406.55375   -406.35054   -3.2021935 
  108000    364.96947   -406.73439   -406.40416   -2.8845766 
  108100     178.1404   -406.44805   -406.28686   -6.1990993 
  108200    331.34838   -406.72237   -406.42255    10.164948 
  108300    298.63039   -406.55331   -406.28311   -15.133636 
  108400     301.5843   -406.34839   -406.07551   -7.0088919 
  108500    395.79393   -406.61637   -406.25825    22.043434 
  108600    424.69875   -406.43767    -406.0534   -16.768773 
  108700    328.18252   -406.57669   -406.27974   -20.474838 
  108800    214.90125   -406.36198   -406.16754    34.932802 
  108900    341.77316   -406.63634    -406.3271   -8.8272378 
  109000    241.24029   -406.51269   -406.29441   -9.3790421 
  109100    321.24065   -406.70515   -406.41449     15.65297 
  109200    149.29841   -406.53837   -406.40328    2.2323858 
  109300    209.69927   -406.56085   -406.37111   -12.928946 
  109400    322.42327   -406.68699   -406.39526    27.790099 
  109500    249.37892   -406.59927   -406.37362   -34.363974 
  109600    437.37305   -406.76641   -406.37067     8.046228 
  109700    178.04908   -406.51123   -406.35012   -0.3041988 
  109800    212.43399   -406.55663   -406.36442    4.9837852 
  109900    323.49432   -406.58137   -406.28866    15.216101 
  110000    258.02558   -406.54144   -406.30797   -17.948217 
  110100    399.84592   -406.60012   -406.23834   -4.5787583 
  110200    256.46159   -406.61393   -406.38188    4.1111145 
  110300    301.82255   -406.62844   -406.35535   -8.1865814 
  110400    289.04766   -406.70913   -406.44759    15.449558 
  110500    224.07309   -406.71784   -406.51509   -20.981019 
  110600     180.3032   -406.72764    -406.5645    16.354461 
  110700    218.32854   -406.75242   -406.55487    0.1246275 
  110800    194.70771   -406.70567   -406.52949   -10.001768 
  110900    243.23703   -406.69827   -406.47818    7.8668514 
  111000     183.2844   -406.51187   -406.34603    21.368976 
  111100    431.32969   -406.66632   -406.27604   -17.550002 
  111200    470.66338   -406.68597   -406.26011    2.1642941 
  111300    392.85869   -406.61557   -406.26011   -26.842116 
  111400    289.24364   -406.53328   -406.27157     32.71573 
  111500    354.53119   -406.70011   -406.37932  -0.71322199 
  111600    306.20202   -406.71522   -406.43816   -26.702731 
  111700    266.21036   -406.64259   -406.40172    9.2913655 
  111800    221.91859   -406.58844   -406.38765    2.9599605 
  111900    271.91004   -406.55398   -406.30795    7.2811315 
  112000    350.60362   -406.68646   -406.36923   -11.527327 
  112100    256.03033    -406.4766   -406.24494   -12.393659 
  112200    351.58696   -406.61547   -406.29734     35.97462 
  112300    269.98436    -406.3767   -406.13242   -30.939928 
  112400    526.12087   -406.65796   -406.18192   -12.514278 
  112500    378.72299   -406.56294   -406.22027     25.43364 
  112600    350.02933   -406.56772     -406.251   -19.809372 
  112700     268.0641   -406.59231   -406.34976    8.4287655 
  112800    283.85415   -406.58234   -406.32551    -2.121417 
  112900    158.74463   -406.61836   -406.47473   0.18665906 
  113000    376.62333   -406.79296   -406.45219     20.51345 
  113100    114.73627   -406.50197   -406.39815   -24.498343 
  113200     347.9319   -406.74645   -406.43163    31.844503 
  113300    332.15369    -406.4835   -406.18296   -7.9556593 
  113400    542.45841   -406.60833    -406.1175   -47.397686 
  113500    582.90286   -406.45203    -405.9246    71.104868 
  113600    629.20526   -406.54349   -405.97417   -31.553571 
  113700    416.52708   -406.60406   -406.22717   -12.813182 
  113800    340.32274   -406.48297   -406.17504    41.241639 
  113900    242.89496   -406.41378     -406.194   -43.928439 
  114000    291.66383   -406.51311   -406.24921    24.415384 
  114100    245.23626   -406.59995   -406.37806   -8.7503089 
  114200    206.50762    -406.7119   -406.52505   -9.5708498 
  114300     260.0705   -406.60039   -406.36508    28.364406 
  114400    294.60773   -406.74744   -406.48087   -37.325999 
  114500    320.58413   -406.57536   -406.28529    25.040222 
  114600    231.70049   -406.42415    -406.2145    12.811529 
  114700    355.46741   -406.49261   -406.17098   -21.372552 
  114800    497.92551   -406.62482   -406.17428    38.150752 
  114900    391.99781   -406.57258    -406.2179   -47.119129 
  115000    290.75996   -406.49761   -406.23452    30.839008 
  115100    360.63627   -406.58971    -406.2634     13.14029 
  115200    284.47157   -406.47978   -406.22238   -43.985994 
  115300    403.58152   -406.64223   -406.27706    35.991707 
  115400    354.92128   -406.67038   -406.34924   -6.5906527 
  115500     288.8698    -406.5066   -406.24522   -26.672633 
  115600     243.8245   -406.58956   -406.36894    32.025463 
  115700    169.85202    -406.5936   -406.43992   -27.864089 
  115800    329.31137   -406.77104   -406.47308    26.444252 
  115900    145.80578   -406.71375   -406.58182   -21.443035 
  116000    154.93641    -406.7507   -406.61051   0.19823177 
  116100     209.7054   -406.78168   -406.59193    21.237947 
  116200    220.10051   -406.73508   -406.53592   -28.084664 
  116300    281.45988   -406.68375   -406.42908    12.913503 
  116400    263.64458   -406.52055     -406.282    20.094682 
  116500     277.9558   -406.55507   -406.30357    -33.17459 
  116600    594.57513   -406.79875   -406.26077    25.672694 
  116700    227.02417   -406.50602   -406.30061   -25.953115 
  116800    314.46175   -406.61531   -406.33078    20.343812 
  116900    278.16307   -406.60388   -406.35219    3.1168053 
  117000    319.46466   -406.71444   -406.42538   -30.906525 
  117100     212.5978   -406.70089   -406.50853    38.095555 
  117200    210.98661   -406.73374   -406.54283   -19.267519 
  117300    186.23611   -406.71343   -406.54492   -5.1495231 
  117400    210.61346   -406.76249   -406.57192    21.024312 
  117500    151.47005    -406.5946   -406.45754   -30.718651 
  117600    413.60252   -406.62842   -406.25418    48.003866 
  117700    374.33988   -406.54088   -406.20217   -22.730185 
  117800    449.15981   -406.60094   -406.19453   -29.274518 
  117900    455.05355   -406.66273   -406.25098    27.390629 
  118000    251.41432   -406.41953   -406.19204   -30.891704 
  118100     306.0696   -406.68401   -406.40707    10.833285 
  118200    212.27226   -406.51843   -406.32636    19.877801 
  118300    276.52478   -406.67717   -406.42696   -33.663798 
  118400    261.35503   -406.60203   -406.36555    21.629031 
  118500    312.40411   -406.71145   -406.42878    6.4148928 
  118600    325.52668   -406.66284   -406.36829   -28.417776 
  118700    469.08523   -406.66231   -406.23788    12.699215 
  118800    238.06183   -406.28816   -406.07276    13.620061 
  118900    529.30826   -406.52295   -406.04402    3.8578645 
  119000    491.10013   -406.33921   -405.89485   -1.3463904 
  119100    472.13075   -406.45136   -406.02417   -8.1448123 
  119200    424.17223   -406.59251   -406.20871   -28.514544 
  119300    268.16208   -406.44848   -406.20584    35.701791 
  119400      351.062   -406.51517   -406.19752    10.213537 
  119500     330.7973   -406.60414   -406.30482   -36.516289 
  119600     308.9643   -406.66897   -406.38941    19.038525 
  119700    304.16319   -406.50244   -406.22722    7.5611712 
  119800    333.34995    -406.5243   -406.22268   -33.474358 
  119900    300.77882   -406.56028   -406.28813      25.9304 
  120000    258.22665    -406.6356   -406.40196   -14.694643 
  120100     374.6234   -406.79093   -406.45196    11.439923 
  120200    305.17528   -406.75427   -406.47814   -10.312246 
  120300    301.05832   -406.78603   -406.51363    17.958238 
  120400    446.43259    -406.8548   -406.45086  -0.97939473 
  120500    285.24241   -406.72293   -406.46483   -10.411855 
  120600    273.75945   -406.68969   -406.44199    26.023991 
  120700    271.90174   -406.65499   -406.40897   -7.9507066 
  120800    274.08857    -406.6113    -406.3633   -13.505266 
  120900    261.40481   -406.69647   -406.45994    18.949476 
  121000    251.64293   -406.61832   -406.39063   -14.581426 
  121100     261.4061   -406.70192   -406.46539    6.4097976 
  121200     336.0504   -406.67847   -406.37441   -6.3867838 
  121300    292.20862   -406.56465   -406.30026   -6.3309748 
  121400    529.08413   -406.68978   -406.21106    17.697739 
  121500    212.32669   -406.28502   -406.09291    -24.05375 
  121600    402.54883    -406.5778   -406.21357   0.88494417 
  121700    266.32283   -406.42811   -406.18714    35.916709 
  121800    290.58584   -406.63385   -406.37093    -33.49439 
  121900    291.90311    -406.6415   -406.37738    12.347605 
  122000    200.33072   -406.59644   -406.41518     7.432438 
  122100    293.39819   -406.71839   -406.45292   -16.316384 
  122200    279.42564   -406.71417   -406.46134    21.371792 
  122300    306.55047   -406.67931   -406.40194   -17.497986 
  122400    182.53023   -406.51455    -406.3494    13.012959 
  122500    500.99986   -406.72796   -406.27465    16.264425 
  122600     331.9363   -406.47147   -406.17113    -48.45551 
  122700    644.13647   -406.59484   -406.01202    24.743994 
  122800    232.65362    -406.1593   -405.94879    24.174491 
  122900    581.56932   -406.57744   -406.05122   -27.708611 
  123000    261.11187   -406.46623   -406.22997    10.396154 
  123100    464.91183   -406.77428   -406.35362     4.227544 
  123200    140.01747   -406.44702   -406.32033   -20.845741 
  123300    378.38529   -406.76941   -406.42704    17.639186 
  123400    166.90499    -406.5157   -406.36468   -3.8929245 
  123500     334.8777   -406.68454   -406.38153    1.4074812 
  123600    253.19318   -406.65051   -406.42142   -9.5299875 
  123700    155.67467   -406.45544   -406.31458    8.2707616 
  123800    239.44553   -406.60839   -406.39173    25.454401 
  123900     416.1872   -406.55151   -406.17493   -29.494393 
  124000    461.01326   -406.44742   -406.03028    6.3117141 
  124100     509.0262   -406.56608    -406.1055    13.965609 
  124200    292.44344   -406.49655   -406.23194   -37.466526 
  124300    355.18439   -406.60064   -406.27927    26.740614 
  124400    298.77674   -406.62333   -406.35299   -8.4375164 
  124500     273.4944   -406.68852   -406.44106   -5.3918299 
  124600    301.47811   -406.71977   -406.44698    12.718236 
  124700    137.67003   -406.53521   -406.41065   -23.457321 
  124800    413.90795   -406.76541    -406.3909    29.448875 
  124900    208.15921   -406.53106   -406.34271   -19.051356 
  125000     395.0793    -406.6289   -406.27142   -18.158483 
  125100    347.73872   -406.48754   -406.17289    55.283511 
  125200    367.88575   -406.40319   -406.07032   -54.808677 
  125300    657.77116   -406.54608   -405.95092    8.0407415 
  125400    264.95777   -406.16198   -405.92224    28.197252 
  125500    348.29279   -406.34268   -406.02754   -36.056434 
  125600    394.06831   -406.44216    -406.0856    27.132893 
  125700    383.98571   -406.62031   -406.27287   -27.290823 
  125800    385.05121   -406.44195   -406.09354   -5.5983373 
  125900    247.16051   -406.46111   -406.23748    18.726819 
  126000     224.6946   -406.47569   -406.27238   -8.2396274 
  126100    336.79568   -406.69072   -406.38598   -9.0138431 
[...]
  471800    397.62782   -406.57438   -406.21459    7.9095768 
  471900    293.22528   -406.46374   -406.19843    -4.420274 
  472000    375.05141   -406.65318   -406.31382   -4.3245639 
  472100    215.04344   -406.61543   -406.42085    10.634417 
  472200    178.67597   -406.63737    -406.4757   -9.2970771 
  472300    177.58054   -406.69907    -406.5384    21.152495 
  472400    205.61838   -406.67588   -406.48983   -20.185645 
  472500    170.91428   -406.72351   -406.56886    19.293936 
  472600    304.78292   -406.70932   -406.43355   -2.7018392 
  472700    319.64362   -406.63032    -406.3411   -14.576011 
  472800    424.62423   -406.54961    -406.1654  -0.83511218 
  472900    255.37812   -406.49005   -406.25897    10.135003 
  473000    322.46262    -406.5199   -406.22813    3.8252898 
  473100    342.70899   -406.61437   -406.30428   -10.833183 
  473200    282.78941   -406.62504   -406.36917   -9.3045136 
  473300    177.47423   -406.55403   -406.39345    32.489113 
  473400    252.19887   -406.70477   -406.47657    -29.41953 
  473500    189.92149   -406.64511   -406.47327     2.630075 
  473600    266.53656    -406.6568   -406.41563    28.120005 
  473700    190.71664    -406.6257   -406.45314   -44.142163 
  473800    436.58153   -406.65267   -406.25764    20.890243 
  473900    385.85728   -406.53441   -406.18528    16.624047 
  474000    404.50158   -406.49153   -406.12553    -51.61494 
  474100    392.99933   -406.59059     -406.235    35.185112 
  474200    361.91697   -406.63596   -406.30849   -13.145009 
  474300    337.92899   -406.70662   -406.40086   -22.518939 
  474400    304.23139   -406.66357   -406.38829    27.060535 
  474500    162.88321   -406.63331   -406.48593   -34.762792 
  474600    333.67683   -406.76019   -406.45827    26.621617 
  474700     225.9554   -406.64882   -406.44437    -17.22878 
  474800    334.35189   -406.62704   -406.32451   -4.1869957 
  474900    300.91612   -406.66556   -406.39328    24.142853 
  475000    279.02956   -406.59048     -406.338   -38.622371 
  475100     266.9998   -406.53762   -406.29603    34.730869 
  475200    395.52323   -406.69151   -406.33363   -3.3605937 
  475300    219.39538   -406.47047   -406.27196   -36.296375 
  475400     372.4644   -406.66629   -406.32928    66.941046 
  475500    189.52852   -406.56456   -406.39307   -61.514564 
  475600     368.8457   -406.69653   -406.36279      21.0945 
  475700    199.96952   -406.62754    -406.4466    23.360283 
  475800     197.6325    -406.7023   -406.52348   -36.465392 
  475900    159.84638   -406.63924    -406.4946    31.265517 
  476000    187.92324   -406.76279   -406.59275   -8.1217434 
  476100    139.71969   -406.71188   -406.58546   -12.281352 
  476200     288.4753   -406.76606   -406.50505    35.781764 
  476300    194.88408   -406.59093   -406.41459   -55.240035 
  476400    369.43732   -406.65877    -406.3245    50.166524 
  476500    375.82782   -406.58658   -406.24652    -19.35491 
  476600    418.32326   -406.67635   -406.29784   -29.831319 
  476700     290.9447   -406.41719   -406.15394    42.587355 
  476800    319.13419   -406.60803   -406.31927   -33.962818 
  476900    293.88881   -406.64721   -406.38129    2.6402264 
  477000    370.81564   -406.77076   -406.43524    24.947978 
  477100    172.77619   -406.66716   -406.51083   -54.504196 
  477200    291.73437   -406.76632   -406.50235    46.440036 
  477300    152.87974   -406.64155   -406.50322   -16.833562 
  477400     336.6281   -406.77385   -406.46926   -11.245621 
  477500    300.89562    -406.5817   -406.30944    12.475734 
  477600    355.38791   -406.44656     -406.125   -15.119155 
  477700    450.70918    -406.4388   -406.03099    14.055189 
  477800    456.28862    -406.5624   -406.14954     15.70645 
  477900    321.74064   -406.56052    -406.2694   -28.783646 
  478000     283.0056   -406.61807     -406.362    30.691394 
  478100    119.05284   -406.43239   -406.32467    -16.26315 
  478200    246.80134   -406.65621    -406.4329    20.967589 
  478300     328.5443   -406.73053   -406.43326    2.2614518 
  478400    234.44002   -406.64607   -406.43395    2.2943775 
  478500    160.48813   -406.43472   -406.28951    16.318239 
  478600    200.95006   -406.60095   -406.41913    -5.373706 
  478700    238.53182   -406.70005   -406.48422    1.2357453 
  478800    203.81777   -406.51414   -406.32972    20.510826 
  478900    265.20116   -406.63243   -406.39247   -30.833246 
  479000    353.86722   -406.70531   -406.38513    38.049662 
  479100    281.77502   -406.48126    -406.2263   -21.661024 
  479200    403.91424   -406.59507    -406.2296    3.1283862 
  479300    356.06411   -406.51334   -406.19116  -0.07143737 
  479400    360.43538   -406.51133    -406.1852  -0.32921558 
  479500    428.60241   -406.69431    -406.3065   -8.8361446 
  479600    284.42372   -406.68187   -406.42452   -6.3332004 
  479700    226.80054   -406.71412   -406.50891   -2.9317704 
  479800    221.41521   -406.67974    -406.4794    10.869138 
  479900    238.17265   -406.77691   -406.56141   -29.100538 
  480000    253.79466   -406.71332   -406.48368    19.188454 
  480100    257.81954   -406.62098    -406.3877   -6.9711955 
  480200    382.57019   -406.72665    -406.3805   -6.3446044 
  480300    346.49439   -406.60723   -406.29372    3.2721358 
  480400    237.67677   -406.53067   -406.31562    7.7761219 
  480500    249.07153   -406.51332   -406.28796   -9.3486983 
  480600    358.25693   -406.67641   -406.35225    28.888281 
  480700    304.59848   -406.62436   -406.34875   -28.738551 
  480800    146.63288   -406.50701   -406.37433    23.888659 
  480900    221.42507   -406.66049   -406.46014    14.478074 
  481000    198.08114   -406.70982   -406.53059     -17.2835 
  481100    147.86777   -406.68453   -406.55073    8.3754259 
  481200    126.83801   -406.73781   -406.62305    12.440505 
  481300    211.17215    -406.7891   -406.59803   -14.341822 
  481400    171.18263   -406.67348   -406.51859    5.9446802 
  481500    179.86409   -406.61814   -406.45539    3.9118121 
  481600    364.17351   -406.66346   -406.33395    4.8303436 
  481700    378.99944   -406.73951   -406.39658   -27.847681 
  481800    294.21275   -406.49192   -406.22571    15.790455 
  481900    338.21041   -406.58599   -406.27997   -5.6177907 
  482000    374.49628   -406.62249   -406.28363   -11.478155 
  482100    472.64462   -406.78121   -406.35355     1.934427 
  482200    323.25269   -406.49231   -406.19983   -9.2379649 
  482300    351.33184   -406.52435   -406.20646   -6.6689008 
  482400    230.77974   -406.57392    -406.3651   -3.4522973 
  482500       333.11   -406.80714   -406.50573     6.654284 
  482600    169.40544   -406.53802   -406.38473   -19.898771 
  482700     245.1166   -406.68117   -406.45939     12.36161 
  482800    306.04793   -406.79529   -406.51837   -11.091741 
  482900      172.132   -406.51117   -406.35542   -1.7335509 
  483000    302.51481   -406.62963   -406.35591    22.957497 
  483100    318.77707   -406.60635   -406.31791    -24.34513 
  483200    263.99045    -406.6381   -406.39923    17.876711 
  483300     385.1169   -406.53062   -406.18216    14.359551 
  483400     353.4734   -406.65271   -406.33288   -38.905397 
  483500    312.89389   -406.56996   -406.28685    48.799554 
  483600     185.2697   -406.41614   -406.24851   -14.512322 
  483700    258.71072   -406.66345   -406.42936   -5.5061105 
  483800    171.79789   -406.52126   -406.36581    27.933223 
  483900    325.33769   -406.75289   -406.45852   -29.776278 
  484000    224.59775   -406.62693   -406.42371     11.34725 
  484100    389.51371   -406.66866   -406.31622    16.295386 
  484200    428.29915   -406.59481   -406.20728   -59.866847 
  484300    739.55778   -406.76889   -406.09973    59.960325 
  484400    435.68135    -406.5568   -406.16259   -37.553917 
  484500     405.7425   -406.71423   -406.34711   -11.213683 
  484600    278.92075    -406.4862   -406.23383    28.754428 
  484700    281.00908   -406.63002   -406.37576   -31.846459 
  484800    284.62131   -406.51573    -406.2582    30.543372 
  484900    266.57696   -406.68068   -406.43947   -14.584746 
  485000    391.08683   -406.69041   -406.33655   -2.2159471 
  485100    239.69204    -406.4758   -406.25893     23.26719 
  485200    264.45997   -406.62147   -406.38218    -23.27114 
  485300    292.54631   -406.67533   -406.41063    14.575963 
  485400    153.67681   -406.51197   -406.37292   -1.6355903 
  485500    269.78263   -406.73201    -406.4879   -10.312598 
  485600    151.64164    -406.6156   -406.47839    20.231184 
  485700    201.63031   -406.66134    -406.4789   -8.4396583 
  485800    329.07835   -406.51834   -406.22058    1.0097197 
  485900    628.73938   -406.68477   -406.11587    9.9929202 
  486000    568.68811   -406.59557   -406.08101   -15.203281 
  486100    459.91567   -406.64671   -406.23057    2.2030544 
  486200    409.06961   -406.55728   -406.18715    11.163257 
  486300      228.716   -406.46232   -406.25537   -31.040253 
  486400    454.81679   -406.80903   -406.39751    13.029242 
  486500    291.65529   -406.65816   -406.39427    -4.830548 
  486600    243.27308   -406.50598   -406.28586   -16.725548 
  486700    215.08658   -406.50657   -406.31196     12.16058 
  486800    286.09021   -406.57519   -406.31633   -1.0292214 
  486900    288.78038   -406.62082   -406.35953   -15.297668 
  487000    341.04004    -406.4101   -406.10152     23.77261 
  487100    322.00464   -406.40381   -406.11245   -15.454477 
  487200    342.68941   -406.31098   -406.00091   -5.2022381 
  487300    567.73898   -406.50586   -405.99215    13.669248 
  487400    392.47075   -406.52047   -406.16535   -32.102531 
  487500    338.76481   -406.66319   -406.35667    18.986812 
  487600    308.88746   -406.67284   -406.39335   -2.0485606 
  487700    234.77128   -406.65392    -406.4415   -20.874137 
  487800    194.86532   -406.60187   -406.42556    33.714726 
  487900    254.95268   -406.55837   -406.32768   -16.617584 
  488000    367.17582   -406.75094   -406.41872    2.1922709 
  488100    194.45717   -406.33938   -406.16343    9.9493822 
  488200    343.86655   -406.44939   -406.13826    6.0049631 
  488300    676.38871   -406.76559   -406.15357   -14.333032 
  488400    382.13624   -406.41541   -406.06965    9.8498119 
  488500    211.96923   -406.53016   -406.33836    -8.377246 
  488600    238.31999   -406.53145   -406.31581    18.657352 
  488700    349.18671   -406.77341   -406.45746   -19.802889 
  488800    262.34915   -406.59469   -406.35731   -14.145496 
  488900    240.68645   -406.66337   -406.44559    37.257786 
  489000    211.87083   -406.43012   -406.23842   -31.122594 
  489100    384.52384   -406.70834   -406.36042    1.6617169 
  489200    320.91821   -406.37938     -406.089    16.146002 
  489300    390.08508   -406.52863   -406.17568   -21.667577 
  489400    358.71906   -406.31912   -405.99454    1.5539472 
  489500    382.63713   -406.58469   -406.23847    14.467323 
  489600    323.73063   -406.59534   -406.30242   -4.4844375 
  489700    323.42964   -406.76477   -406.47212   -11.064667 
  489800    180.32846   -406.60688   -406.44372    7.2594672 
  489900    218.97884   -406.63619   -406.43805     10.81862 
  490000    234.60628   -406.53916   -406.32688   -5.7174474 
  490100    197.03826   -406.55276   -406.37448    9.3268934 
  490200    379.47265   -406.53844   -406.19508   -3.3659891 
  490300    384.86731   -406.38149   -406.03325   -6.1828278 
  490400    309.85928   -406.39615   -406.11578    26.067584 
  490500    304.93846   -406.29712    -406.0212    8.6396681 
  490600    451.40203   -406.69918   -406.29074   -10.887436 
  490700    329.35786   -406.72823   -406.43022   -24.337756 
  490800    185.65525   -406.58887   -406.42089    24.146995 
  490900    188.91494   -406.62152   -406.45058    3.3971135 
  491000    345.28958   -406.72924   -406.41682   -15.795603 
  491100    391.15902   -406.72354   -406.36961   -2.8306453 
  491200    275.83975   -406.54543   -406.29585   -1.9910661 
  491300    211.67608   -406.44978   -406.25825    22.772344 
  491400    435.71282   -406.50538   -406.11114   -7.1468096 
  491500    533.77834   -406.59734   -406.11436   -10.353491 
  491600     564.6331   -406.65066   -406.13977    11.765184 
  491700     319.2219   -406.45637   -406.16753   -32.522352 
  491800    242.82359   -406.59593   -406.37621    24.769057 
  491900    314.17283   -406.56528   -406.28101      4.77169 
  492000    263.37182   -406.49028   -406.25197   -27.312216 
  492100    307.15929   -406.72058   -406.44266    23.137855 
  492200    145.37332   -406.41266   -406.28113     3.186913 
  492300     308.6777   -406.64361   -406.36431     2.029865 
  492400    307.93308   -406.67505   -406.39642    8.1933886 
  492500      246.251   -406.48802    -406.2652   -13.615565 
  492600    382.60706    -406.6069   -406.26071     18.95744 
  492700    314.06209   -406.62935   -406.34518     -25.9782 
  492800    217.67553   -406.40284   -406.20589    27.270771 
  492900    343.90923   -406.62437   -406.31319   -4.9452587 
  493000    370.49686   -406.49876   -406.16353   -30.996688 
  493100    315.50185   -406.30044   -406.01496    39.401566 
  493200    478.82923   -406.56403   -406.13077    -33.64304 
  493300    392.29611   -406.28944   -405.93448    4.6226613 
  493400    376.90787   -406.52837   -406.18734    18.644725 
  493500    169.28934   -406.47182   -406.31864   -27.226147 
  493600    285.54481   -406.65299   -406.39462    24.010994 
  493700    250.99826   -406.49069   -406.26358   -13.176072 
  493800    297.41074   -406.70347   -406.43437   -14.297751 
  493900    310.85673   -406.63105   -406.34978    22.836989 
  494000    263.17563   -406.60082   -406.36269   -24.539598 
  494100    385.69308   -406.67533   -406.32635    2.7785619 
  494200     303.1867     -406.576   -406.30167    11.989679 
  494300    283.98033   -406.43259   -406.17564   -3.1347598 
  494400     491.4006   -406.50531   -406.06068    13.991208 
  494500    496.80183   -406.56639   -406.11687   -20.765437 
  494600    311.45556   -406.51958   -406.23777    12.022475 
  494700      288.153   -406.60821   -406.34748    23.006309 
  494800    240.55617   -406.62917   -406.41151   -11.672412 
  494900    182.86693   -406.52702   -406.36156    17.154693 
  495000    283.76687   -406.72703   -406.47027   0.33839668 
  495100    301.23986   -406.60751   -406.33495    -7.970927 
  495200    265.42813    -406.6146   -406.37444    1.4821616 
  495300    314.82597   -406.58656    -406.3017    15.549383 
  495400    471.07965   -406.70116   -406.27492   -22.889156 
  495500    541.68436   -406.59582    -406.1057   -23.311004 
  495600    676.51766   -406.64936   -406.03724   0.58464384 
  495700    356.11291   -406.25918   -405.93696   -14.737016 
  495800    350.43994   -406.38197   -406.06488    19.541759 
  495900     354.1745   -406.66615   -406.34568   -9.3014319 
  496000    318.03599   -406.61336   -406.32559   -4.7929925 
  496100    312.08894   -406.70952   -406.42714   -3.1923303 
  496200    159.02972   -406.59764   -406.45375    6.5319393 
  496300    308.92596    -406.7085   -406.42898    12.289507 
  496400    268.38719   -406.62303   -406.38019   -24.914911 
  496500    402.94864   -406.70816   -406.34356    11.388306 
  496600    200.99636   -406.47866   -406.29679   -3.4612133 
  496700    398.27162   -406.56103   -406.20067    6.6260978 
  496800    476.26862     -406.504   -406.07306   -3.1721951 
  496900    389.20693   -406.47668   -406.12451   -14.748609 
  497000    414.18824   -406.50434   -406.12957    4.7538973 
  497100    335.48009   -406.65948   -406.35593   -11.794456 
  497200    230.79693   -406.63707   -406.42824    -4.288509 
  497300     249.1323   -406.71047   -406.48505    29.195247 
  497400    230.71846   -406.55413   -406.34538   -34.343358 
  497500    180.27504   -406.61807   -406.45495    26.836206 
  497600    285.98733   -406.57667    -406.3179    14.215195 
  497700    244.35596   -406.51212   -406.29102   -18.919404 
  497800    433.05296   -406.64137   -406.24954    28.422767 
  497900    269.30814   -406.38823   -406.14456   -9.7551382 
  498000    492.53534   -406.55859   -406.11293   -7.1686588 
  498100    330.20214   -406.51987    -406.2211    32.951591 
  498200    386.99679   -406.66189   -406.31173   -30.111889 
  498300    308.43005   -406.73577   -406.45669     0.926527 
  498400    298.66912   -406.71222   -406.44198    11.744207 
  498500    178.58895   -406.61719    -406.4556   -18.231815 
  498600    360.07414   -406.76954   -406.44374   -8.1801664 
  498700    185.71424    -406.5128   -406.34476    17.002273 
  498800    385.67041   -406.68312   -406.33416   -13.990718 
  498900    407.04782   -406.61054   -406.24223   -15.799026 
  499000     370.0919   -406.53281   -406.19794    6.7220682 
  499100    430.35146   -406.58827   -406.19888    18.842101 
  499200     441.0046   -406.66432   -406.26529    -32.98441 
  499300    201.12782   -406.62288   -406.44089    5.7527841 
  499400    180.60561   -406.60675   -406.44333    15.980442 
  499500    249.28659   -406.73856     -406.513   -24.202284 
  499600    269.84928    -406.6267   -406.38253    12.326775 
  499700    331.89852   -406.67411    -406.3738    3.1371008 
  499800    319.47533   -406.47723   -406.18816   -11.405392 
  499900     322.7522   -406.55595   -406.26392     1.431516 
  500000    508.44084   -406.56369   -406.10364     17.55605 
  500100    449.62319   -406.41112   -406.00429   -8.4851544 
  500200    304.62076    -406.6449   -406.36927   -5.0069586 
  500300    240.13724   -406.57832   -406.36104    13.122405 
  500400    218.81119   -406.68041   -406.48243   0.23399091 
  500500    211.40744   -406.70556   -406.51427   -9.7060013 
  500600    251.35186   -406.61757   -406.39014    21.681103 
  500700    244.55238   -406.60436   -406.38309   -29.564331 
  500800    347.35765   -406.47634   -406.16204    18.834536 
  500900    405.76908   -406.49444   -406.12729   -1.9131458 
  501000    308.80213   -406.52368   -406.24427   -22.527963 
  501100    236.24746   -406.56581   -406.35205    30.519814 
  501200    289.52108   -406.53811   -406.27615   -8.9741885 
  501300    240.16729   -406.66296   -406.44565   -17.181461 
  501400    240.57495   -406.62078   -406.40311    35.177356 
  501500    295.49059   -406.69323   -406.42587   -31.024063 
  501600    304.43013   -406.52944   -406.25398   0.51805161 
  501700    525.72725    -406.7186   -406.24291    6.4446814 
  501800     247.2195   -406.31164   -406.08795   -12.994399 
  501900    593.26285   -406.64545   -406.10865     13.88476 
  502000    217.40611   -406.38325   -406.18653   -5.7651798 
WARNING: Wall time limit reached (../timer.cpp:262)
Loop time of 1199.6 on 1 procs for 502000 steps with 8 atoms

Performance: 18.078 ns/day, 1.328 hours/ns, 418.472 timesteps/s
179.0% CPU use with 1 MPI tasks x no OpenMP threads

MPI task timing breakdown:
Section |  min time  |  avg time  |  max time  |%varavg| %total
---------------------------------------------------------------
Pair    | 945.09     | 945.09     | 945.09     |   0.0 | 78.78
Neigh   | 0.012073   | 0.012073   | 0.012073   |   0.0 |  0.00
Comm    | 0.23396    | 0.23396    | 0.23396    |   0.0 |  0.02
Output  | 0.18952    | 0.18952    | 0.18952    |   0.0 |  0.02
Modify  | 253.79     | 253.79     | 253.79     |   0.0 | 21.16
Other   |            | 0.2831     |            |       |  0.02

Nlocal:    8 ave 8 max 8 min
Histogram: 1 0 0 0 0 0 0 0 0 0
Nghost:    0 ave 0 max 0 min
Histogram: 1 0 0 0 0 0 0 0 0 0
Neighs:    0 ave 0 max 0 min
Histogram: 1 0 0 0 0 0 0 0 0 0

Total # of neighbors = 0
Ave neighs/atom = 0
Neighbor list builds = 1163
Dangerous builds = 0

write_restart lammps.restart
WARNING: Pair style restartinfo set but has no restart support (../pair.cpp:711)
Total wall time: 0:20:00
