
     Program PWSCF v.5.1.1 starts on  4Jul2020 at 16:12:52 

     This program is part of the open-source Quantum ESPRESSO suite
     for quantum simulation of materials; please cite
         "P. Giannozzi et al., J. Phys.:Condens. Matter 21 395502 (2009);
          URL http://www.quantum-espresso.org", 
     in publications or presentations arising from this work. More details at
     http://www.quantum-espresso.org/quote

     Parallel version (MPI), running on     1 processors
     Waiting for input...
     Reading input from standard input
Warning: card &IONS ignored
Warning: card / ignored
Warning: card &CELL ignored
Warning: card / ignored

     Current dimensions of program PWSCF are:
     Max number of different atomic species (ntypx) = 10
     Max number of k-points (npk) =  40000
     Max angular momentum in pseudopotentials (lmaxx) =  3

     gamma-point specific algorithms are used

     Subspace diagonalization in iterative solution of the eigenvalue problem:
     a serial algorithm will be used


     G-vector sticks info
     --------------------
     sticks:   dense  smooth     PW     G-vecs:    dense   smooth      PW
     Sum        5689    5689   1433               322453   322453   40339
     Tot        2845    2845    717



     bravais-lattice index     =            1
     lattice parameter (alat)  =      18.8973  a.u.
     unit-cell volume          =    6748.3346 (a.u.)^3
     number of atoms/cell      =            8
     number of atomic types    =            2
     number of electrons       =        14.00
     number of Kohn-Sham states=            7
     kinetic-energy cutoff     =      50.0000  Ry
     charge density cutoff     =     200.0000  Ry
     convergence threshold     =      1.0E-06
     mixing beta               =       0.2000
     number of iterations used =            8  plain     mixing
     Exchange-correlation      = PBE ( 1  4  3  4 0 0)

     celldm(1)=  18.897261  celldm(2)=   0.000000  celldm(3)=   0.000000
     celldm(4)=   0.000000  celldm(5)=   0.000000  celldm(6)=   0.000000

     crystal axes: (cart. coord. in units of alat)
               a(1) = (   1.000000   0.000000   0.000000 )  
               a(2) = (   0.000000   1.000000   0.000000 )  
               a(3) = (   0.000000   0.000000   1.000000 )  

     reciprocal axes: (cart. coord. in units 2 pi/alat)
               b(1) = (  1.000000  0.000000  0.000000 )  
               b(2) = (  0.000000  1.000000  0.000000 )  
               b(3) = (  0.000000  0.000000  1.000000 )  


     PseudoPot. # 1 for C  read from file:
     ../../pseudo-potentials/C_ONCV_PBE-1.0.upf
     MD5 check sum: 40f8c33130f0afa4272e9dcc1c4fb0df
     Pseudo is Norm-conserving, Zval =  4.0
     Generated using ONCVPSP code by D. R. Hamann
     Using radial grid of  602 points,  4 beta functions with: 
                l(1) =   0
                l(2) =   0
                l(3) =   1
                l(4) =   1

     PseudoPot. # 2 for H  read from file:
     ../../pseudo-potentials/H_ONCV_PBE-1.0.upf
     MD5 check sum: 10f92816c437af099bca1a183851adc8
     Pseudo is Norm-conserving, Zval =  1.0
     Generated using ONCVPSP code by D. R. Hamann
     Using radial grid of  602 points,  2 beta functions with: 
                l(1) =   0
                l(2) =   0

     atomic species   valence    mass     pseudopotential
        C              4.00     1.00000     C ( 1.00)
        H              1.00     1.00000     H ( 1.00)

     No symmetry found



   Cartesian axes

     site n.     atom                  positions (alat units)
         1           C   tau(   1) = (   1.7544560   2.1778360   1.9956320  )
         2           C   tau(   2) = (   1.8409800   2.3029880   2.0039520  )
         3           H   tau(   3) = (   1.6792280   2.1748760   2.0795040  )
         4           H   tau(   4) = (   1.8054600   2.0792840   2.0038040  )
         5           H   tau(   5) = (   1.6948120   2.1882480   1.9072000  )
         6           H   tau(   6) = (   1.9403040   2.2712320   1.9796080  )
         7           H   tau(   7) = (   1.8307640   2.3477200   2.1032360  )
         8           H   tau(   8) = (   1.8169720   2.3874600   1.9315680  )

     number of k points=     1
                       cart. coord. in units 2pi/alat
        k(    1) = (   0.0000000   0.0000000   0.0000000), wk =   2.0000000

     Dense  grid:   161227 G-vectors     FFT dimensions: (  90,  90,  90)

     Largest allocated arrays     est. size (Mb)     dimensions
        Kohn-Sham Wavefunctions         2.15 Mb     (   20170,    7)
        NL pseudopotentials             8.62 Mb     (   20170,   28)
        Each V/rho on FFT grid         11.12 Mb     (  729000)
        Each G-vector array             1.23 Mb     (  161227)
        G-vector shells                 0.01 Mb     (    1510)
     Largest temporary arrays     est. size (Mb)     dimensions
        Auxiliary wavefunctions         4.31 Mb     (   20170,   28)
        Each subspace H/S matrix        0.01 Mb     (      28,   28)
        Each <psi_i|beta_j> matrix      0.00 Mb     (      28,    7)
        Arrays for rho mixing          88.99 Mb     (  729000,    8)

     Initial potential from superposition of free atoms
     Check: negative starting charge=   -0.000642

     starting charge   13.97327, renormalised to   14.00000

     negative rho (up, down):  6.429E-04 0.000E+00
     Starting wfc are random

     total cpu time spent up to now is        1.9 secs

     per-process dynamical memory:   141.6 Mb

     Self-consistent Calculation

     iteration #  1     ecut=    50.00 Ry     beta=0.20
     Davidson diagonalization with overlap
     ethr =  1.00E-02,  avg # of iterations =  9.0

     negative rho (up, down):  4.197E-04 0.000E+00

     total cpu time spent up to now is        5.2 secs

     total energy              =     -30.00145715 Ry
     Harris-Foulkes estimate   =     -30.24243510 Ry
     estimated scf accuracy    <       0.93584726 Ry

     iteration #  2     ecut=    50.00 Ry     beta=0.20
     Davidson diagonalization with overlap
     ethr =  6.68E-03,  avg # of iterations =  1.0

     negative rho (up, down):  1.194E-04 0.000E+00

     total cpu time spent up to now is        7.0 secs

     total energy              =     -29.78303481 Ry
     Harris-Foulkes estimate   =     -30.02641964 Ry
     estimated scf accuracy    <       0.41861986 Ry

     iteration #  3     ecut=    50.00 Ry     beta=0.20
     Davidson diagonalization with overlap
     ethr =  2.99E-03,  avg # of iterations =  2.0

     negative rho (up, down):  1.517E-04 0.000E+00

     total cpu time spent up to now is        8.9 secs

     total energy              =     -29.96619926 Ry
     Harris-Foulkes estimate   =     -29.91569459 Ry
     estimated scf accuracy    <       0.09459676 Ry

     iteration #  4     ecut=    50.00 Ry     beta=0.20
     Davidson diagonalization with overlap
     ethr =  6.76E-04,  avg # of iterations =  2.0

     negative rho (up, down):  2.151E-05 0.000E+00

     total cpu time spent up to now is       10.8 secs

     total energy              =     -29.85426852 Ry
     Harris-Foulkes estimate   =     -29.98141341 Ry
     estimated scf accuracy    <       0.30998447 Ry

     iteration #  5     ecut=    50.00 Ry     beta=0.20
     Davidson diagonalization with overlap
     ethr =  6.76E-04,  avg # of iterations =  2.0

     negative rho (up, down):  3.847E-06 0.000E+00

     total cpu time spent up to now is       12.8 secs

     total energy              =     -29.88373871 Ry
     Harris-Foulkes estimate   =     -29.88908718 Ry
     estimated scf accuracy    <       0.01592843 Ry

     iteration #  6     ecut=    50.00 Ry     beta=0.20
     Davidson diagonalization with overlap
     ethr =  1.14E-04,  avg # of iterations =  1.0

     negative rho (up, down):  1.500E-06 0.000E+00

     total cpu time spent up to now is       14.6 secs

     total energy              =     -29.88337659 Ry
     Harris-Foulkes estimate   =     -29.88499875 Ry
     estimated scf accuracy    <       0.00336988 Ry

     iteration #  7     ecut=    50.00 Ry     beta=0.20
     Davidson diagonalization with overlap
     ethr =  2.41E-05,  avg # of iterations =  3.0

     negative rho (up, down):  1.059E-07 0.000E+00

     total cpu time spent up to now is       16.6 secs

     total energy              =     -29.88470306 Ry
     Harris-Foulkes estimate   =     -29.88486887 Ry
     estimated scf accuracy    <       0.00038680 Ry

     iteration #  8     ecut=    50.00 Ry     beta=0.20
     Davidson diagonalization with overlap
     ethr =  2.76E-06,  avg # of iterations =  2.0

     total cpu time spent up to now is       18.6 secs

     total energy              =     -29.88476958 Ry
     Harris-Foulkes estimate   =     -29.88476490 Ry
     estimated scf accuracy    <       0.00001453 Ry

     iteration #  9     ecut=    50.00 Ry     beta=0.20
     Davidson diagonalization with overlap
     ethr =  1.04E-07,  avg # of iterations =  2.0

     total cpu time spent up to now is       20.6 secs

     total energy              =     -29.88476815 Ry
     Harris-Foulkes estimate   =     -29.88477149 Ry
     estimated scf accuracy    <       0.00001747 Ry

     iteration # 10     ecut=    50.00 Ry     beta=0.20
     Davidson diagonalization with overlap
     ethr =  1.04E-07,  avg # of iterations =  1.0

     total cpu time spent up to now is       22.5 secs

     total energy              =     -29.88476554 Ry
     Harris-Foulkes estimate   =     -29.88476895 Ry
     estimated scf accuracy    <       0.00000768 Ry

     iteration # 11     ecut=    50.00 Ry     beta=0.20
     Davidson diagonalization with overlap
     ethr =  5.48E-08,  avg # of iterations =  2.0

     total cpu time spent up to now is       24.3 secs

     End of self-consistent calculation

          k = 0.0000 0.0000 0.0000 ( 20170 PWs)   bands (ev):

   -18.2984 -14.6734 -10.3779 -10.2346  -8.7734  -7.6926  -7.5006

     highest occupied level (ev):    -7.5006

!    total energy              =     -29.88476714 Ry
     Harris-Foulkes estimate   =     -29.88476723 Ry
     estimated scf accuracy    <       0.00000016 Ry

     The total energy is the sum of the following terms:

     one-electron contribution =     -88.65216511 Ry
     hartree contribution      =      45.94017295 Ry
     xc contribution           =     -11.29036725 Ry
     ewald contribution        =      24.11759227 Ry

     convergence has been achieved in  11 iterations

     Forces acting on atoms (Ry/au):

     atom    1 type  1   force =    -0.04591239    0.00125942    0.04630907
     atom    2 type  1   force =    -0.01722207    0.02534207   -0.01049951
     atom    3 type  2   force =     0.01773524    0.00454511   -0.01993273
     atom    4 type  2   force =     0.00207710    0.02443736   -0.01570970
     atom    5 type  2   force =    -0.01656165   -0.02606590   -0.03279400
     atom    6 type  2   force =     0.04228024    0.01067582    0.00804616
     atom    7 type  2   force =     0.02237483    0.00114158    0.00472771
     atom    8 type  2   force =    -0.00477131   -0.04133546    0.01985299

     Total force =     0.116315     Total SCF correction =     0.000371


     entering subroutine stress ...

          total   stress  (Ry/bohr**3)                   (kbar)     P=   -2.30
   0.00000499   0.00001282   0.00001380          0.73      1.89      2.03
   0.00001282  -0.00003520   0.00001621          1.89     -5.18      2.39
   0.00001380   0.00001621  -0.00001674          2.03      2.39     -2.46


     init_run     :      1.77s CPU      1.87s WALL (       1 calls)
     electrons    :     21.95s CPU     22.42s WALL (       1 calls)
     forces       :      1.01s CPU      1.02s WALL (       1 calls)
     stress       :      1.33s CPU      1.37s WALL (       1 calls)

     Called by init_run:
     wfcinit      :      0.18s CPU      0.19s WALL (       1 calls)
     potinit      :      1.28s CPU      1.35s WALL (       1 calls)

     Called by electrons:
     c_bands      :      6.69s CPU      6.74s WALL (      11 calls)
     sum_band     :      1.76s CPU      1.78s WALL (      11 calls)
     v_of_rho     :     13.52s CPU     13.90s WALL (      12 calls)
     mix_rho      :      0.93s CPU      0.99s WALL (      11 calls)

     Called by c_bands:
     init_us_2    :      0.30s CPU      0.31s WALL (      23 calls)
     regterg      :      6.12s CPU      6.16s WALL (      11 calls)

     Called by *egterg:
     h_psi        :      5.90s CPU      5.94s WALL (      39 calls)
     g_psi        :      0.08s CPU      0.08s WALL (      27 calls)
     rdiaghg      :      0.01s CPU      0.01s WALL (      38 calls)

     Called by h_psi:
     add_vuspsi   :      0.08s CPU      0.08s WALL (      39 calls)

     General routines
     calbec       :      0.11s CPU      0.12s WALL (      44 calls)
     fft          :      3.57s CPU      3.71s WALL (     139 calls)
     fftw         :      5.37s CPU      5.40s WALL (     328 calls)

     Parallel routines
     fft_scatter  :      2.01s CPU      2.08s WALL (     467 calls)

     PWSCF        :    26.09s CPU        26.73s WALL


   This run was terminated on:  16:13:19   4Jul2020            

=------------------------------------------------------------------------------=
   JOB DONE.
=------------------------------------------------------------------------------=
