
     Program PWSCF v.5.1.1 starts on  4Jul2020 at 16:12:52 

     This program is part of the open-source Quantum ESPRESSO suite
     for quantum simulation of materials; please cite
         "P. Giannozzi et al., J. Phys.:Condens. Matter 21 395502 (2009);
          URL http://www.quantum-espresso.org", 
     in publications or presentations arising from this work. More details at
     http://www.quantum-espresso.org/quote

     Parallel version (MPI), running on     1 processors
     Waiting for input...
     Reading input from standard input
Warning: card &IONS ignored
Warning: card / ignored
Warning: card &CELL ignored
Warning: card / ignored

     Current dimensions of program PWSCF are:
     Max number of different atomic species (ntypx) = 10
     Max number of k-points (npk) =  40000
     Max angular momentum in pseudopotentials (lmaxx) =  3

     gamma-point specific algorithms are used

     Subspace diagonalization in iterative solution of the eigenvalue problem:
     a serial algorithm will be used


     G-vector sticks info
     --------------------
     sticks:   dense  smooth     PW     G-vecs:    dense   smooth      PW
     Sum        5689    5689   1433               322453   322453   40339
     Tot        2845    2845    717



     bravais-lattice index     =            1
     lattice parameter (alat)  =      18.8973  a.u.
     unit-cell volume          =    6748.3346 (a.u.)^3
     number of atoms/cell      =            8
     number of atomic types    =            2
     number of electrons       =        14.00
     number of Kohn-Sham states=            7
     kinetic-energy cutoff     =      50.0000  Ry
     charge density cutoff     =     200.0000  Ry
     convergence threshold     =      1.0E-06
     mixing beta               =       0.2000
     number of iterations used =            8  plain     mixing
     Exchange-correlation      = PBE ( 1  4  3  4 0 0)

     celldm(1)=  18.897261  celldm(2)=   0.000000  celldm(3)=   0.000000
     celldm(4)=   0.000000  celldm(5)=   0.000000  celldm(6)=   0.000000

     crystal axes: (cart. coord. in units of alat)
               a(1) = (   1.000000   0.000000   0.000000 )  
               a(2) = (   0.000000   1.000000   0.000000 )  
               a(3) = (   0.000000   0.000000   1.000000 )  

     reciprocal axes: (cart. coord. in units 2 pi/alat)
               b(1) = (  1.000000  0.000000  0.000000 )  
               b(2) = (  0.000000  1.000000  0.000000 )  
               b(3) = (  0.000000  0.000000  1.000000 )  


     PseudoPot. # 1 for C  read from file:
     ../../pseudo-potentials/C_ONCV_PBE-1.0.upf
     MD5 check sum: 40f8c33130f0afa4272e9dcc1c4fb0df
     Pseudo is Norm-conserving, Zval =  4.0
     Generated using ONCVPSP code by D. R. Hamann
     Using radial grid of  602 points,  4 beta functions with: 
                l(1) =   0
                l(2) =   0
                l(3) =   1
                l(4) =   1

     PseudoPot. # 2 for H  read from file:
     ../../pseudo-potentials/H_ONCV_PBE-1.0.upf
     MD5 check sum: 10f92816c437af099bca1a183851adc8
     Pseudo is Norm-conserving, Zval =  1.0
     Generated using ONCVPSP code by D. R. Hamann
     Using radial grid of  602 points,  2 beta functions with: 
                l(1) =   0
                l(2) =   0

     atomic species   valence    mass     pseudopotential
        C              4.00     1.00000     C ( 1.00)
        H              1.00     1.00000     H ( 1.00)

     No symmetry found



   Cartesian axes

     site n.     atom                  positions (alat units)
         1           C   tau(   1) = (   1.7520440   2.1787360   1.9968600  )
         2           C   tau(   2) = (   1.8413760   2.3033480   2.0017600  )
         3           H   tau(   3) = (   1.6434080   2.1909640   1.9852640  )
         4           H   tau(   4) = (   1.7648320   2.1303400   2.0936360  )
         5           H   tau(   5) = (   1.7806560   2.1137960   1.9136160  )
         6           H   tau(   6) = (   1.9244480   2.2922240   1.9297800  )
         7           H   tau(   7) = (   1.8821160   2.3054240   2.1047880  )
         8           H   tau(   8) = (   1.7961080   2.4010560   1.9893760  )

     number of k points=     1
                       cart. coord. in units 2pi/alat
        k(    1) = (   0.0000000   0.0000000   0.0000000), wk =   2.0000000

     Dense  grid:   161227 G-vectors     FFT dimensions: (  90,  90,  90)

     Largest allocated arrays     est. size (Mb)     dimensions
        Kohn-Sham Wavefunctions         2.15 Mb     (   20170,    7)
        NL pseudopotentials             8.62 Mb     (   20170,   28)
        Each V/rho on FFT grid         11.12 Mb     (  729000)
        Each G-vector array             1.23 Mb     (  161227)
        G-vector shells                 0.01 Mb     (    1510)
     Largest temporary arrays     est. size (Mb)     dimensions
        Auxiliary wavefunctions         4.31 Mb     (   20170,   28)
        Each subspace H/S matrix        0.01 Mb     (      28,   28)
        Each <psi_i|beta_j> matrix      0.00 Mb     (      28,    7)
        Arrays for rho mixing          88.99 Mb     (  729000,    8)

     Initial potential from superposition of free atoms
     Check: negative starting charge=   -0.000644

     starting charge   13.97327, renormalised to   14.00000

     negative rho (up, down):  6.448E-04 0.000E+00
     Starting wfc are random

     total cpu time spent up to now is        2.2 secs

     per-process dynamical memory:   141.6 Mb

     Self-consistent Calculation

     iteration #  1     ecut=    50.00 Ry     beta=0.20
     Davidson diagonalization with overlap
     ethr =  1.00E-02,  avg # of iterations =  9.0

     negative rho (up, down):  4.218E-04 0.000E+00

     total cpu time spent up to now is        5.4 secs

     total energy              =     -30.00545444 Ry
     Harris-Foulkes estimate   =     -30.25186916 Ry
     estimated scf accuracy    <       0.95625440 Ry

     iteration #  2     ecut=    50.00 Ry     beta=0.20
     Davidson diagonalization with overlap
     ethr =  6.83E-03,  avg # of iterations =  1.0

     negative rho (up, down):  1.235E-04 0.000E+00

     total cpu time spent up to now is        7.3 secs

     total energy              =     -29.79213260 Ry
     Harris-Foulkes estimate   =     -30.03167057 Ry
     estimated scf accuracy    <       0.41817858 Ry

     iteration #  3     ecut=    50.00 Ry     beta=0.20
     Davidson diagonalization with overlap
     ethr =  2.99E-03,  avg # of iterations =  2.0

     negative rho (up, down):  1.558E-04 0.000E+00

     total cpu time spent up to now is        9.4 secs

     total energy              =     -29.95726061 Ry
     Harris-Foulkes estimate   =     -29.91804204 Ry
     estimated scf accuracy    <       0.08666306 Ry

     iteration #  4     ecut=    50.00 Ry     beta=0.20
     Davidson diagonalization with overlap
     ethr =  6.19E-04,  avg # of iterations =  2.0

     negative rho (up, down):  1.776E-05 0.000E+00

     total cpu time spent up to now is       11.5 secs

     total energy              =     -29.85383162 Ry
     Harris-Foulkes estimate   =     -29.96851703 Ry
     estimated scf accuracy    <       0.25194509 Ry

     iteration #  5     ecut=    50.00 Ry     beta=0.20
     Davidson diagonalization with overlap
     ethr =  6.19E-04,  avg # of iterations =  2.0

     negative rho (up, down):  4.077E-06 0.000E+00

     total cpu time spent up to now is       13.6 secs

     total energy              =     -29.88900750 Ry
     Harris-Foulkes estimate   =     -29.89024480 Ry
     estimated scf accuracy    <       0.00484534 Ry

     iteration #  6     ecut=    50.00 Ry     beta=0.20
     Davidson diagonalization with overlap
     ethr =  3.46E-05,  avg # of iterations =  2.0

     negative rho (up, down):  1.623E-06 0.000E+00

     total cpu time spent up to now is       15.5 secs

     total energy              =     -29.88880747 Ry
     Harris-Foulkes estimate   =     -29.88945058 Ry
     estimated scf accuracy    <       0.00159994 Ry

     iteration #  7     ecut=    50.00 Ry     beta=0.20
     Davidson diagonalization with overlap
     ethr =  1.14E-05,  avg # of iterations =  2.0

     negative rho (up, down):  2.293E-08 0.000E+00

     total cpu time spent up to now is       17.6 secs

     total energy              =     -29.88912636 Ry
     Harris-Foulkes estimate   =     -29.88920224 Ry
     estimated scf accuracy    <       0.00024016 Ry

     iteration #  8     ecut=    50.00 Ry     beta=0.20
     Davidson diagonalization with overlap
     ethr =  1.72E-06,  avg # of iterations =  2.0

     total cpu time spent up to now is       19.5 secs

     total energy              =     -29.88913474 Ry
     Harris-Foulkes estimate   =     -29.88914699 Ry
     estimated scf accuracy    <       0.00004023 Ry

     iteration #  9     ecut=    50.00 Ry     beta=0.20
     Davidson diagonalization with overlap
     ethr =  2.87E-07,  avg # of iterations =  2.0

     total cpu time spent up to now is       21.4 secs

     total energy              =     -29.88913253 Ry
     Harris-Foulkes estimate   =     -29.88913762 Ry
     estimated scf accuracy    <       0.00001299 Ry

     iteration # 10     ecut=    50.00 Ry     beta=0.20
     Davidson diagonalization with overlap
     ethr =  9.28E-08,  avg # of iterations =  2.0

     total cpu time spent up to now is       23.2 secs

     End of self-consistent calculation

          k = 0.0000 0.0000 0.0000 ( 20170 PWs)   bands (ev):

   -18.2650 -14.7545 -10.4705 -10.1253  -8.5411  -7.8621  -7.6029

     highest occupied level (ev):    -7.6029

!    total energy              =     -29.88913457 Ry
     Harris-Foulkes estimate   =     -29.88913480 Ry
     estimated scf accuracy    <       0.00000068 Ry

     The total energy is the sum of the following terms:

     one-electron contribution =     -88.69330791 Ry
     hartree contribution      =      45.96615449 Ry
     xc contribution           =     -11.30512591 Ry
     ewald contribution        =      24.14314476 Ry

     convergence has been achieved in  10 iterations

     Forces acting on atoms (Ry/au):

     atom    1 type  1   force =    -0.01349621    0.00445695   -0.00372377
     atom    2 type  1   force =     0.01797203   -0.01418163    0.02161467
     atom    3 type  2   force =     0.00197350    0.02020054   -0.00015959
     atom    4 type  2   force =    -0.00158629   -0.02589140   -0.00396464
     atom    5 type  2   force =     0.00538980   -0.01092687    0.00668075
     atom    6 type  2   force =    -0.00441510    0.00956843    0.01080295
     atom    7 type  2   force =     0.01187391    0.00878729   -0.01654626
     atom    8 type  2   force =    -0.01771164    0.00798669   -0.01470410

     Total force =     0.061760     Total SCF correction =     0.001039


     entering subroutine stress ...

          total   stress  (Ry/bohr**3)                   (kbar)     P=   -1.99
  -0.00001189  -0.00000151   0.00000334         -1.75     -0.22      0.49
  -0.00000151  -0.00000282  -0.00000460         -0.22     -0.41     -0.68
   0.00000334  -0.00000460  -0.00002597          0.49     -0.68     -3.82


     init_run     :      2.02s CPU      2.11s WALL (       1 calls)
     electrons    :     20.76s CPU     21.04s WALL (       1 calls)
     forces       :      1.06s CPU      1.07s WALL (       1 calls)
     stress       :      1.37s CPU      1.40s WALL (       1 calls)

     Called by init_run:
     wfcinit      :      0.23s CPU      0.25s WALL (       1 calls)
     potinit      :      1.44s CPU      1.49s WALL (       1 calls)

     Called by electrons:
     c_bands      :      6.40s CPU      6.43s WALL (      10 calls)
     sum_band     :      1.89s CPU      1.90s WALL (      10 calls)
     v_of_rho     :     12.62s CPU     12.82s WALL (      11 calls)
     mix_rho      :      0.96s CPU      1.02s WALL (      10 calls)

     Called by c_bands:
     init_us_2    :      0.28s CPU      0.29s WALL (      21 calls)
     regterg      :      5.88s CPU      5.90s WALL (      10 calls)

     Called by *egterg:
     h_psi        :      5.72s CPU      5.75s WALL (      37 calls)
     g_psi        :      0.07s CPU      0.07s WALL (      26 calls)
     rdiaghg      :      0.00s CPU      0.01s WALL (      36 calls)

     Called by h_psi:
     add_vuspsi   :      0.08s CPU      0.08s WALL (      37 calls)

     General routines
     calbec       :      0.11s CPU      0.11s WALL (      42 calls)
     fft          :      3.48s CPU      3.57s WALL (     128 calls)
     fftw         :      5.21s CPU      5.23s WALL (     300 calls)

     Parallel routines
     fft_scatter  :      2.12s CPU      2.16s WALL (     428 calls)

     PWSCF        :    25.24s CPU        25.68s WALL


   This run was terminated on:  16:13:18   4Jul2020            

=------------------------------------------------------------------------------=
   JOB DONE.
=------------------------------------------------------------------------------=
