
     Program PWSCF v.5.1.1 starts on  4Jul2020 at 17:33: 8 

     This program is part of the open-source Quantum ESPRESSO suite
     for quantum simulation of materials; please cite
         "P. Giannozzi et al., J. Phys.:Condens. Matter 21 395502 (2009);
          URL http://www.quantum-espresso.org", 
     in publications or presentations arising from this work. More details at
     http://www.quantum-espresso.org/quote

     Parallel version (MPI), running on     1 processors
     Waiting for input...
     Reading input from standard input
Warning: card &IONS ignored
Warning: card / ignored
Warning: card &CELL ignored
Warning: card / ignored

     Current dimensions of program PWSCF are:
     Max number of different atomic species (ntypx) = 10
     Max number of k-points (npk) =  40000
     Max angular momentum in pseudopotentials (lmaxx) =  3

     gamma-point specific algorithms are used

     Subspace diagonalization in iterative solution of the eigenvalue problem:
     a serial algorithm will be used


     G-vector sticks info
     --------------------
     sticks:   dense  smooth     PW     G-vecs:    dense   smooth      PW
     Sum        5689    5689   1433               322453   322453   40339
     Tot        2845    2845    717



     bravais-lattice index     =            1
     lattice parameter (alat)  =      18.8973  a.u.
     unit-cell volume          =    6748.3346 (a.u.)^3
     number of atoms/cell      =            8
     number of atomic types    =            2
     number of electrons       =        14.00
     number of Kohn-Sham states=            7
     kinetic-energy cutoff     =      50.0000  Ry
     charge density cutoff     =     200.0000  Ry
     convergence threshold     =      1.0E-06
     mixing beta               =       0.2000
     number of iterations used =            8  plain     mixing
     Exchange-correlation      = PBE ( 1  4  3  4 0 0)

     celldm(1)=  18.897261  celldm(2)=   0.000000  celldm(3)=   0.000000
     celldm(4)=   0.000000  celldm(5)=   0.000000  celldm(6)=   0.000000

     crystal axes: (cart. coord. in units of alat)
               a(1) = (   1.000000   0.000000   0.000000 )  
               a(2) = (   0.000000   1.000000   0.000000 )  
               a(3) = (   0.000000   0.000000   1.000000 )  

     reciprocal axes: (cart. coord. in units 2 pi/alat)
               b(1) = (  1.000000  0.000000  0.000000 )  
               b(2) = (  0.000000  1.000000  0.000000 )  
               b(3) = (  0.000000  0.000000  1.000000 )  


     PseudoPot. # 1 for C  read from file:
     ../../pseudo-potentials/C_ONCV_PBE-1.0.upf
     MD5 check sum: 40f8c33130f0afa4272e9dcc1c4fb0df
     Pseudo is Norm-conserving, Zval =  4.0
     Generated using ONCVPSP code by D. R. Hamann
     Using radial grid of  602 points,  4 beta functions with: 
                l(1) =   0
                l(2) =   0
                l(3) =   1
                l(4) =   1

     PseudoPot. # 2 for H  read from file:
     ../../pseudo-potentials/H_ONCV_PBE-1.0.upf
     MD5 check sum: 10f92816c437af099bca1a183851adc8
     Pseudo is Norm-conserving, Zval =  1.0
     Generated using ONCVPSP code by D. R. Hamann
     Using radial grid of  602 points,  2 beta functions with: 
                l(1) =   0
                l(2) =   0

     atomic species   valence    mass     pseudopotential
        C              4.00     1.00000     C ( 1.00)
        H              1.00     1.00000     H ( 1.00)

     No symmetry found



   Cartesian axes

     site n.     atom                  positions (alat units)
         1           C   tau(   1) = (   1.7435400   2.1864280   1.9913960  )
         2           C   tau(   2) = (   1.8491160   2.2927600   2.0129200  )
         3           H   tau(   3) = (   1.7830920   2.0839840   1.9724040  )
         4           H   tau(   4) = (   1.7008000   2.2121600   1.8908080  )
         5           H   tau(   5) = (   1.6574320   2.1936240   2.0567080  )
         6           H   tau(   6) = (   1.8405440   2.3711040   1.9301160  )
         7           H   tau(   7) = (   1.9557360   2.2579760   1.9924640  )
         8           H   tau(   8) = (   1.8630680   2.3494920   2.1060720  )

     number of k points=     1
                       cart. coord. in units 2pi/alat
        k(    1) = (   0.0000000   0.0000000   0.0000000), wk =   2.0000000

     Dense  grid:   161227 G-vectors     FFT dimensions: (  90,  90,  90)

     Largest allocated arrays     est. size (Mb)     dimensions
        Kohn-Sham Wavefunctions         2.15 Mb     (   20170,    7)
        NL pseudopotentials             8.62 Mb     (   20170,   28)
        Each V/rho on FFT grid         11.12 Mb     (  729000)
        Each G-vector array             1.23 Mb     (  161227)
        G-vector shells                 0.01 Mb     (    1510)
     Largest temporary arrays     est. size (Mb)     dimensions
        Auxiliary wavefunctions         4.31 Mb     (   20170,   28)
        Each subspace H/S matrix        0.01 Mb     (      28,   28)
        Each <psi_i|beta_j> matrix      0.00 Mb     (      28,    7)
        Arrays for rho mixing          88.99 Mb     (  729000,    8)

     Initial potential from superposition of free atoms
     Check: negative starting charge=   -0.000648

     starting charge   13.97327, renormalised to   14.00000

     negative rho (up, down):  6.493E-04 0.000E+00
     Starting wfc are random

     total cpu time spent up to now is        2.1 secs

     per-process dynamical memory:   141.6 Mb

     Self-consistent Calculation

     iteration #  1     ecut=    50.00 Ry     beta=0.20
     Davidson diagonalization with overlap
     ethr =  1.00E-02,  avg # of iterations =  9.0

     negative rho (up, down):  4.257E-04 0.000E+00

     total cpu time spent up to now is        5.9 secs

     total energy              =     -29.98527134 Ry
     Harris-Foulkes estimate   =     -30.21532759 Ry
     estimated scf accuracy    <       0.89330953 Ry

     iteration #  2     ecut=    50.00 Ry     beta=0.20
     Davidson diagonalization with overlap
     ethr =  6.38E-03,  avg # of iterations =  1.0

     negative rho (up, down):  1.245E-04 0.000E+00

     total cpu time spent up to now is        7.9 secs

     total energy              =     -29.78152485 Ry
     Harris-Foulkes estimate   =     -30.00907360 Ry
     estimated scf accuracy    <       0.39554612 Ry

     iteration #  3     ecut=    50.00 Ry     beta=0.20
     Davidson diagonalization with overlap
     ethr =  2.83E-03,  avg # of iterations =  2.0

     negative rho (up, down):  1.707E-04 0.000E+00

     total cpu time spent up to now is       10.1 secs

     total energy              =     -29.95881961 Ry
     Harris-Foulkes estimate   =     -29.90477115 Ry
     estimated scf accuracy    <       0.09033852 Ry

     iteration #  4     ecut=    50.00 Ry     beta=0.20
     Davidson diagonalization with overlap
     ethr =  6.45E-04,  avg # of iterations =  2.0

     negative rho (up, down):  1.461E-05 0.000E+00

     total cpu time spent up to now is       12.3 secs

     total energy              =     -29.83164039 Ry
     Harris-Foulkes estimate   =     -29.97701925 Ry
     estimated scf accuracy    <       0.33363589 Ry

     iteration #  5     ecut=    50.00 Ry     beta=0.20
     Davidson diagonalization with overlap
     ethr =  6.45E-04,  avg # of iterations =  2.0

     negative rho (up, down):  1.767E-06 0.000E+00

     total cpu time spent up to now is       14.6 secs

     total energy              =     -29.87590305 Ry
     Harris-Foulkes estimate   =     -29.87737122 Ry
     estimated scf accuracy    <       0.00764538 Ry

     iteration #  6     ecut=    50.00 Ry     beta=0.20
     Davidson diagonalization with overlap
     ethr =  5.46E-05,  avg # of iterations =  1.0

     negative rho (up, down):  1.071E-06 0.000E+00

     total cpu time spent up to now is       16.6 secs

     total energy              =     -29.87450747 Ry
     Harris-Foulkes estimate   =     -29.87645954 Ry
     estimated scf accuracy    <       0.00407732 Ry

     iteration #  7     ecut=    50.00 Ry     beta=0.20
     Davidson diagonalization with overlap
     ethr =  2.91E-05,  avg # of iterations =  2.0

     negative rho (up, down):  3.202E-08 0.000E+00

     total cpu time spent up to now is       18.9 secs

     total energy              =     -29.87562821 Ry
     Harris-Foulkes estimate   =     -29.87568250 Ry
     estimated scf accuracy    <       0.00016033 Ry

     iteration #  8     ecut=    50.00 Ry     beta=0.20
     Davidson diagonalization with overlap
     ethr =  1.15E-06,  avg # of iterations =  2.0

     negative rho (up, down):  1.599E-08 0.000E+00

     total cpu time spent up to now is       21.0 secs

     total energy              =     -29.87566224 Ry
     Harris-Foulkes estimate   =     -29.87566471 Ry
     estimated scf accuracy    <       0.00002259 Ry

     iteration #  9     ecut=    50.00 Ry     beta=0.20
     Davidson diagonalization with overlap
     ethr =  1.61E-07,  avg # of iterations =  2.0

     total cpu time spent up to now is       23.2 secs

     total energy              =     -29.87565875 Ry
     Harris-Foulkes estimate   =     -29.87566436 Ry
     estimated scf accuracy    <       0.00001620 Ry

     iteration # 10     ecut=    50.00 Ry     beta=0.20
     Davidson diagonalization with overlap
     ethr =  1.16E-07,  avg # of iterations =  2.0

     total cpu time spent up to now is       25.2 secs

     total energy              =     -29.87566003 Ry
     Harris-Foulkes estimate   =     -29.87566045 Ry
     estimated scf accuracy    <       0.00000222 Ry

     iteration # 11     ecut=    50.00 Ry     beta=0.20
     Davidson diagonalization with overlap
     ethr =  1.59E-08,  avg # of iterations =  2.0

     total cpu time spent up to now is       26.8 secs

     End of self-consistent calculation

          k = 0.0000 0.0000 0.0000 ( 20170 PWs)   bands (ev):

   -18.2674 -14.7505 -10.3028  -9.9777  -8.9794  -7.8307  -7.2109

     highest occupied level (ev):    -7.2109

!    total energy              =     -29.87565962 Ry
     Harris-Foulkes estimate   =     -29.87566017 Ry
     estimated scf accuracy    <       0.00000095 Ry

     The total energy is the sum of the following terms:

     one-electron contribution =     -87.87323705 Ry
     hartree contribution      =      45.53350013 Ry
     xc contribution           =     -11.23372540 Ry
     ewald contribution        =      23.69780270 Ry

     convergence has been achieved in  11 iterations

     Forces acting on atoms (Ry/au):

     atom    1 type  1   force =    -0.00628334    0.00579986   -0.07231934
     atom    2 type  1   force =     0.08977818    0.04713829   -0.05933382
     atom    3 type  2   force =    -0.00980592    0.01552456    0.03192716
     atom    4 type  2   force =    -0.00035393   -0.01272779    0.01973248
     atom    5 type  2   force =    -0.00219306   -0.01532452    0.02203002
     atom    6 type  2   force =    -0.00406274   -0.02004727    0.04050493
     atom    7 type  2   force =    -0.03982785   -0.00634673    0.00883231
     atom    8 type  2   force =    -0.02725133   -0.01401641    0.00862626

     Total force =     0.162837     Total SCF correction =     0.000754


     entering subroutine stress ...

          total   stress  (Ry/bohr**3)                   (kbar)     P=   -3.75
  -0.00002347   0.00000818  -0.00000239         -3.45      1.20     -0.35
   0.00000818  -0.00002541   0.00000203          1.20     -3.74      0.30
  -0.00000239   0.00000203  -0.00002765         -0.35      0.30     -4.07


     init_run     :      2.00s CPU      2.06s WALL (       1 calls)
     electrons    :     24.42s CPU     24.73s WALL (       1 calls)
     forces       :      0.95s CPU      0.96s WALL (       1 calls)
     stress       :      1.17s CPU      1.20s WALL (       1 calls)

     Called by init_run:
     wfcinit      :      0.29s CPU      0.29s WALL (       1 calls)
     potinit      :      1.36s CPU      1.40s WALL (       1 calls)

     Called by electrons:
     c_bands      :      8.44s CPU      8.49s WALL (      11 calls)
     sum_band     :      2.37s CPU      2.38s WALL (      11 calls)
     v_of_rho     :     13.04s CPU     13.26s WALL (      12 calls)
     mix_rho      :      1.57s CPU      1.61s WALL (      11 calls)

     Called by c_bands:
     init_us_2    :      0.31s CPU      0.31s WALL (      23 calls)
     regterg      :      7.89s CPU      7.93s WALL (      11 calls)

     Called by *egterg:
     h_psi        :      7.67s CPU      7.71s WALL (      39 calls)
     g_psi        :      0.07s CPU      0.07s WALL (      27 calls)
     rdiaghg      :      0.01s CPU      0.01s WALL (      38 calls)

     Called by h_psi:
     add_vuspsi   :      0.12s CPU      0.12s WALL (      39 calls)

     General routines
     calbec       :      0.15s CPU      0.15s WALL (      44 calls)
     fft          :      3.76s CPU      3.85s WALL (     139 calls)
     fftw         :      6.57s CPU      6.60s WALL (     324 calls)

     Parallel routines
     fft_scatter  :      2.77s CPU      2.82s WALL (     463 calls)

     PWSCF        :    28.57s CPU        28.99s WALL


   This run was terminated on:  17:33:37   4Jul2020            

=------------------------------------------------------------------------------=
   JOB DONE.
=------------------------------------------------------------------------------=
