ethane

8 atoms
2 atom types

-20.0 20.0 xlo xhi
-20.0 20.0 ylo yhi
-20.0 20.0 zlo zhi

Masses

1 12.011
2  1.008

Atoms

1 1    -2.5226908771      1.8335697705      0.0000001070
2 1    -1.5355349122      2.9789268617     -0.0000001708
3 2    -2.0726031307      0.9382164292      0.4390711470
4 2    -2.8361138264      1.5962678734     -1.0210161024
5 2    -3.4121738894      2.0927605544      0.5819451834
6 2    -0.6460518593      2.7197360395     -0.5819451680
7 2    -1.2221120346      3.2162288206      1.0210160463
8 2    -1.9856226250      3.8742801772     -0.4390712979
