 17.46400000  21.84696000  19.97732000 18.46536000  22.97204000  20.00360000 17.71008000  21.11688000  19.19332000 16.48684000  22.19616000  20.05860000 17.47136000  21.16620000  20.91112000 19.26900000  22.69668000  20.70316000 18.07024000  23.88948000  20.32632000 18.96596000  23.29460000  19.03468000
 17.47404000  21.83764000  19.97996000 18.46528000  22.98008000  20.01548000 17.85148000  20.92128000  19.45980000 16.63380000  22.11360000  19.32216000 17.13168000  21.55496000  21.00424000 19.46132000  22.63580000  20.24188000 18.35324000  23.57072000  20.91476000 18.42332000  23.57920000  19.11116000
 17.45444000  21.78016000  19.99044000 18.50312000  23.02052000  20.00620000 17.84856000  20.74152000  20.02864000 16.95872000  21.91364000  19.00760000 16.68300000  21.91872000  20.73940000 19.62356000  22.77420000  19.87656000 18.38272000  23.44532000  21.06892000 18.14064000  23.78488000  19.31892000
 17.45072000  21.79900000  19.97732000 18.49144000  23.01376000  20.02624000 17.47384000  21.26144000  20.96016000 17.55468000  20.98040000  19.15872000 16.49744000  22.13144000  19.64856000 18.97560000  23.23132000  19.05232000 19.31568000  22.88872000  20.75092000 18.00308000  23.94112000  20.38692000
 17.50116000  21.83532000  19.98804000 18.46676000  22.95144000  20.01960000 17.39304000  21.17860000  20.92440000 17.54120000  21.22164000  19.03832000 16.48288000  22.23444000  19.85704000 19.13936000  23.20180000  19.10000000 19.09276000  22.96356000  20.94352000 17.86432000  23.94380000  20.04556000
 17.47784000  21.84028000  20.00816000 18.44756000  22.99208000  19.98972000 18.00424000  21.08128000  19.35696000 16.50120000  22.02152000  19.50028000 17.31012000  21.35560000  21.00124000 19.11448000  22.67480000  20.76312000 18.05420000  23.92940000  20.30172000 19.03616000  23.13828000  19.10200000
 17.45996000  21.81812000  19.97084000 18.46084000  23.01308000  20.02620000 18.01360000  21.02952000  19.47408000 16.45316000  21.91292000  19.48432000 17.26236000  21.41256000  20.97772000 19.24244000  22.76012000  20.75424000 18.10804000  24.03512000  20.21904000 18.99564000  23.06432000  19.12600000
 17.47916000  21.79048000  19.94820000 18.47300000  23.00772000  20.05344000 17.10900000  21.67052000  18.95504000 16.55748000  21.99404000  20.52804000 17.89876000  20.92292000  20.52872000 18.44348000  23.49244000  21.02032000 18.23492000  23.83152000  19.34900000 19.45812000  22.69652000  19.59940000
 17.50064000  21.82624000  19.96360000 18.46060000  22.96728000  20.02816000 16.44540000  22.15360000  19.63132000 17.30872000  21.54168000  21.06784000 17.79252000  21.11600000  19.17064000 18.00776000  23.85936000  20.45744000 18.71584000  23.26200000  18.99072000 19.32328000  22.73104000  20.77996000
 17.48372000  21.84564000  20.00540000 18.44536000  22.97096000  20.00736000 17.69304000  21.25948000  19.15048000 16.46152000  22.21056000  19.87044000 17.60316000  21.11588000  20.76644000 19.22304000  22.80964000  20.81072000 17.84380000  24.01884000  20.17500000 19.15228000  22.97432000  19.07476000
 17.48408000  21.81988000  20.01564000 18.47040000  22.98680000  19.98476000 16.49216000  22.00364000  20.43536000 17.96272000  20.89192000  20.38876000 17.11760000  21.69224000  18.97696000 18.37132000  23.76576000  19.22548000 19.57404000  22.57964000  20.11168000 18.15564000  23.57364000  20.85684000
 17.47652000  21.83336000  19.95900000 18.45908000  22.98472000  20.04152000 18.08396000  20.95788000  20.20488000 16.84276000  21.71716000  19.05808000 16.77988000  21.87728000  20.82816000 19.40068000  22.55156000  19.68700000 18.54856000  23.53748000  20.96476000 18.24304000  23.72976000  19.25096000
 17.45508000  21.80084000  20.00372000 18.49444000  23.00704000  19.98308000 18.00960000  20.98824000  19.54844000 16.55064000  22.10436000  19.48124000 16.98868000  21.49100000  20.90404000 19.41796000  22.55260000  20.30980000 18.24948000  23.70336000  20.79908000 18.51688000  23.65308000  19.11460000
 17.44068000  21.81636000  20.01408000 18.47572000  23.01320000  19.99352000 17.89352000  21.22424000  19.16788000 16.40312000  22.10516000  19.74032000 17.35612000  21.14944000  20.89872000 19.32916000  22.58692000  20.54080000 18.10020000  23.89288000  20.48988000 19.04536000  23.27560000  19.07156000
 17.44760000  21.82024000  19.95656000 18.48980000  22.99868000  20.04380000 16.55456000  22.00348000  19.29452000 16.96360000  21.63780000  20.92976000 17.96432000  20.90036000  19.77684000 18.72920000  23.42440000  21.08996000 18.18432000  23.71476000  19.19612000 19.48144000  22.68032000  19.70888000
 17.45072000  21.85004000  19.99040000 18.48376000  22.96804000  20.04984000 17.45704000  21.43732000  18.95200000 16.44156000  22.05320000  20.15512000 17.83708000  21.03356000  20.53480000 19.18920000  22.64292000  19.27916000 18.95580000  23.29088000  21.01476000 18.03156000  23.91300000  19.58456000
 17.48220000  21.81388000  19.94344000 18.48592000  22.97808000  20.00144000 17.25096000  21.14364000  19.08384000 16.50900000  22.28144000  20.21704000 17.69248000  21.27228000  20.85512000 19.59900000  22.89360000  19.65712000 18.59536000  23.21032000  21.06292000 17.86484000  23.88108000  19.78044000
 17.44756000  21.82936000  19.95460000 18.48620000  22.98964000  20.04408000 17.26768000  21.30628000  20.92648000 17.98200000  21.08412000  19.44164000 16.42576000  22.04632000  19.55772000 18.00480000  23.94444000  19.90508000 19.14012000  22.80948000  19.23084000 19.10040000  23.16976000  20.95404000
 17.45920000  21.82280000  19.94252000 18.48412000  22.98996000  20.03708000 17.45712000  21.19156000  20.92752000 17.65952000  21.13596000  19.10036000 16.38492000  22.22008000  19.95400000 17.93804000  23.94204000  20.01924000 19.27492000  22.92668000  19.31036000 19.09244000  23.01816000  20.93132000
 17.46708000  21.81608000  19.96796000 18.47132000  23.00680000  20.03532000 17.12548000  21.41352000  20.94440000 17.86584000  21.01716000  19.29796000 16.58828000  22.16488000  19.45788000 18.06056000  23.90128000  20.46284000 18.98440000  23.02872000  19.10428000 19.24092000  22.78808000  20.69384000
 17.44512000  21.84848000  19.94344000 18.50160000  22.95592000  20.06604000 17.63732000  21.27328000  20.87352000 17.65980000  21.12700000  19.09236000 16.34964000  22.15752000  19.79412000 17.94568000  23.85112000  19.68172000 19.39448000  22.87220000  19.33588000 18.77932000  23.25252000  21.10948000
 17.48404000  21.83308000  19.95356000 18.47656000  22.97292000  20.02212000 17.57784000  21.13876000  19.10516000 16.48240000  22.22024000  20.09660000 17.47948000  21.17636000  20.81804000 19.46960000  22.80436000  19.67976000 18.48772000  23.33568000  21.05656000 18.10400000  23.83960000  19.53400000
 17.44048000  21.81728000  19.94840000 18.48776000  23.00436000  20.05552000 17.91296000  21.13684000  19.26848000 16.39120000  22.07384000  19.80820000 17.50852000  21.24632000  20.87396000 19.30496000  22.67320000  19.42512000 18.79000000  23.29112000  21.07036000 18.07908000  23.90752000  19.50732000
 17.46340000  21.81660000  19.98332000 18.46536000  22.99304000  20.02564000 16.42056000  22.14096000  19.90428000 17.43488000  21.10240000  20.81676000 17.72800000  21.29132000  19.08552000 18.75460000  23.39220000  21.04108000 18.23020000  23.96504000  19.48232000 19.41204000  22.57980000  19.56328000
 17.45320000  21.82132000  19.98576000 18.47976000  22.99896000  20.03860000 16.45408000  22.20576000  19.47828000 17.22676000  21.23668000  20.86104000 17.87892000  21.02084000  19.35256000 18.92352000  23.09140000  21.06896000 18.14988000  24.03640000  19.63372000 19.29728000  22.75376000  19.31544000
 17.43048000  21.83408000  19.91856000 18.50820000  22.96984000  20.07252000 16.48308000  22.13920000  19.46248000 17.32300000  21.51048000  20.94512000 17.74520000  20.92240000  19.39044000 18.67428000  23.34756000  21.10316000 18.09176000  23.81548000  19.50496000 19.54504000  22.80464000  19.70008000
 17.47292000  21.82368000  19.93732000 18.48188000  22.97092000  20.03440000 16.56176000  22.36036000  20.23296000 17.67732000  20.99432000  20.64832000 17.27140000  21.48292000  18.95296000 18.04032000  23.64344000  20.77880000 18.75368000  23.54236000  19.13704000 19.36568000  22.62724000  20.58720000
 17.48564000  21.83772000  19.97440000 18.47248000  22.96536000  20.03704000 16.60844000  21.81036000  20.62268000 17.96864000  20.84420000  19.90500000 16.88796000  22.04864000  19.09908000 18.12840000  24.01828000  19.92952000 19.18976000  22.78732000  19.23388000 18.84728000  23.04076000  21.07376000
 17.49036000  21.81728000  19.94804000 18.47660000  22.98840000  20.03876000 17.64020000  20.89836000  20.54760000 17.17340000  21.54844000  18.89800000 16.51288000  22.27084000  20.20992000 18.77576000  23.46712000  19.09848000 19.30264000  22.59968000  20.64496000 18.12072000  23.73432000  20.75792000
 17.45824000  21.84968000  19.91908000 18.44136000  22.97432000  20.10016000 17.30164000  21.65984000  18.89976000 16.52796000  21.88156000  20.47476000 17.95456000  21.00756000  20.31616000 19.07444000  23.04704000  21.03856000 18.18288000  23.96028000  19.69360000 19.28636000  22.74424000  19.34788000
 17.45096000  21.81040000  19.94536000 18.48060000  22.99876000  20.05092000 17.74272000  20.79312000  20.38860000 17.38084000  21.57080000  18.88512000 16.48964000  22.12216000  20.34480000 19.46760000  22.77780000  20.48108000 18.22304000  23.73488000  20.82688000 18.64288000  23.47864000  19.11768000
 17.48452000  21.81588000  19.93068000 18.45800000  23.00220000  20.07456000 17.53760000  21.25244000  19.02056000 16.46068000  22.12576000  19.86812000 17.60852000  21.13540000  20.74948000 18.12856000  23.88980000  19.47756000 19.42756000  22.59616000  19.72092000 18.65340000  23.37124000  21.10108000
 17.46736000  21.82516000  19.92980000 18.47248000  22.98872000  20.07504000 17.93516000  20.80220000  20.05904000 17.18604000  21.63644000  18.89468000 16.64892000  22.06436000  20.66328000 18.07440000  23.99312000  19.97572000 19.16256000  23.07076000  19.22260000 18.84144000  22.85452000  21.12708000
 17.47788000  21.83324000  19.89644000 18.46992000  22.96780000  20.07344000 18.06956000  20.89844000  20.07804000 16.75188000  21.92712000  19.06764000 16.74492000  21.79996000  20.70836000 18.09224000  23.91692000  19.62556000 19.48724000  22.60664000  19.76800000 18.60792000  23.42496000  21.11128000
 17.46556000  21.83468000  19.91560000 18.47676000  22.97140000  20.11124000 16.72252000  21.83844000  20.68612000 18.00932000  20.92388000  19.89464000 16.92160000  21.87008000  18.98236000 17.90480000  23.80392000  20.46428000 18.77420000  23.41248000  19.13780000 19.48644000  22.66544000  20.51532000
 17.45744000  21.83692000  19.92524000 18.47688000  22.98664000  20.06340000 16.52832000  22.09408000  19.42200000 17.07992000  21.42296000  20.88472000 17.94828000  21.02184000  19.28456000 18.19648000  23.94856000  19.74360000 19.49444000  22.62828000  19.59620000 18.66644000  23.19000000  21.20408000
 17.44896000  21.85488000  19.90968000 18.47576000  22.98120000  20.07768000 16.34564000  22.11384000  19.87236000 17.51276000  21.16892000  20.78596000 17.76884000  21.19240000  19.04948000 18.47480000  23.86664000  19.37672000 19.44692000  22.60396000  19.91304000 18.47920000  23.21048000  21.15312000
 17.47444000  21.84392000  19.86712000 18.44732000  22.99480000  20.10148000 17.28348000  21.55668000  20.91048000 17.91944000  20.84224000  19.50100000 16.55460000  22.05912000  19.39868000 19.34428000  22.37940000  20.42980000 18.15584000  23.67052000  20.89768000 18.80616000  23.61720000  19.23644000
 17.47436000  21.83944000  19.85932000 18.47684000  22.98716000  20.11184000 17.32876000  21.63672000  21.00880000 17.74240000  20.90864000  19.31816000 16.42540000  22.03848000  19.47684000 19.45104000  22.49252000  20.29032000 18.15144000  23.54064000  20.99056000 18.61400000  23.65256000  19.25896000
 17.46624000  21.82556000  19.91480000 18.47556000  22.97308000  20.11504000 17.97028000  20.98184000  19.54516000 16.80400000  22.07704000  19.13180000 16.76856000  21.61688000  20.70256000 18.32360000  23.68168000  20.91488000 18.46924000  23.59504000  19.19976000 19.48936000  22.65016000  20.15024000
 17.48052000  21.82392000  19.90328000 18.46212000  22.97596000  20.07876000 17.00432000  21.72116000  20.83400000 17.86056000  20.85412000  19.70472000 16.76812000  22.14256000  19.20072000 19.49684000  22.61020000  20.38960000 18.15424000  23.64140000  20.89984000 18.53072000  23.61852000  19.18524000
 17.47764000  21.82780000  19.91320000 18.47716000  22.97868000  20.11656000 17.45356000  21.13220000  20.69360000 17.59288000  21.41196000  18.91968000 16.46428000  22.10572000  19.87072000 19.08764000  23.07740000  21.02216000 17.91568000  23.93652000  19.89436000 19.15576000  22.84544000  19.24492000
 17.47832000  21.85512000  19.91108000 18.46316000  22.95676000  20.09752000 17.39444000  21.45852000  18.83592000 16.41692000  22.03552000  20.20728000 17.86740000  21.03360000  20.53108000 18.04848000  23.89632000  19.69316000 19.37036000  22.94396000  19.41904000 18.73104000  23.07688000  21.21104000
 17.46464000  21.80524000  19.91792000 18.48096000  22.99688000  20.09172000 17.04156000  22.05604000  18.92692000 16.58796000  21.79236000  20.60512000 17.87624000  20.77584000  19.88568000 18.62204000  23.52632000  19.21208000 19.51644000  22.75952000  20.34568000 18.13580000  23.65076000  20.90992000
 17.48280000  21.83240000  19.89284000 18.46244000  22.98864000  20.08536000 17.49528000  21.19048000  20.80532000 17.71212000  21.14956000  19.05736000 16.43896000  22.25948000  19.65328000 18.67172000  23.07412000  21.13548000 18.01900000  23.92980000  19.90764000 19.44672000  22.73188000  19.70044000
 17.46148000  21.85308000  19.89564000 18.46028000  22.96128000  20.11924000 17.28388000  21.85716000  18.78656000 16.53788000  21.85768000  20.51172000 17.92216000  20.84952000  19.97448000 18.74664000  23.30436000  19.12624000 19.48576000  22.85028000  20.66676000 18.08760000  23.69632000  20.75700000
 17.46680000  21.83116000  19.86392000 18.46848000  22.98532000  20.11088000 17.18752000  21.57196000  20.89840000 17.91528000  20.94212000  19.35016000 16.56560000  22.05568000  19.27212000 18.78336000  23.07124000  21.20640000 17.96176000  23.89008000  20.02248000 19.48920000  22.85904000  19.55072000
 17.49280000  21.82348000  19.88416000 18.46300000  22.98472000  20.10360000 16.46468000  22.21504000  19.86700000 17.59388000  21.16648000  20.77036000 17.48740000  21.33328000  18.92536000 19.48164000  22.57044000  20.19904000 18.07836000  23.39972000  21.03712000 18.55224000  23.80356000  19.34680000
 17.47444000  21.82852000  19.89300000 18.45616000  23.00040000  20.11440000 16.40220000  22.12660000  20.08368000 17.62136000  20.85776000  20.53988000 17.65672000  21.49576000  18.85640000 19.37508000  22.59788000  20.58068000 18.18008000  23.81812000  20.77896000 18.72308000  23.34528000  19.07232000
 17.50624000  21.80528000  19.88660000 18.44372000  22.98824000  20.09792000 16.55532000  22.31788000  19.83372000 17.29912000  21.17332000  20.75576000 17.65540000  21.16448000  18.98504000 19.24196000  22.57852000  20.65512000 18.10908000  23.81476000  20.75044000 18.86692000  23.61468000  19.20436000
 17.48140000  21.82112000  19.90380000 18.45552000  22.99512000  20.12448000 17.80252000  20.84800000  20.36092000 17.51756000  21.61880000  18.83452000 16.39320000  22.04196000  20.15128000 17.93692000  23.97184000  19.95472000 19.15824000  23.01140000  19.36972000 19.07452000  22.90048000  20.99156000
 17.49080000  21.84104000  19.88484000 18.45012000  22.98120000  20.09676000 17.61316000  21.11920000  20.67668000 17.59640000  21.18376000  18.86688000 16.53664000  22.19632000  19.95528000 17.89636000  23.73116000  20.69516000 18.93564000  23.35204000  19.23560000 19.25700000  22.73904000  20.78956000
 17.52688000  21.81932000  19.87700000 18.43952000  22.97348000  20.09492000 17.28152000  21.60668000  18.86684000 16.53796000  22.15740000  20.25444000 17.66348000  21.04756000  20.56688000 19.21804000  23.21776000  19.32216000 18.88592000  22.68692000  20.99168000 17.94508000  23.95560000  20.33288000
 17.48816000  21.79608000  19.90336000 18.44916000  23.00756000  20.12632000 16.84964000  22.13160000  19.04180000 16.69644000  21.63104000  20.67424000 18.07008000  20.87604000  19.52752000 19.45924000  22.52880000  19.98180000 18.39200000  23.58496000  21.06348000 18.41124000  23.79092000  19.35776000
 17.44840000  21.84228000  19.88072000 18.48916000  22.97632000  20.13752000 16.77344000  21.57184000  20.74516000 18.10704000  20.89816000  19.71084000 16.80160000  22.02872000  19.02196000 18.23256000  23.62408000  20.96012000 18.41492000  23.61440000  19.23908000 19.54576000  22.62784000  20.10536000
 17.46100000  21.81640000  19.87760000 18.47940000  23.00720000  20.10084000 17.63340000  20.83332000  20.39360000 17.39708000  21.51136000  18.78716000 16.52092000  22.12168000  20.38784000 18.06560000  24.03684000  19.96140000 19.43508000  22.89228000  19.60008000 18.78932000  22.90952000  21.12688000
 17.46752000  21.81456000  19.89260000 18.46316000  23.00208000  20.11900000 17.96268000  20.93676000  19.35048000 16.73008000  22.27088000  19.19868000 17.01448000  21.40300000  20.80876000 18.62796000  23.54760000  19.22316000 19.43788000  22.53100000  20.32732000 18.18460000  23.69872000  20.95320000
 17.46444000  21.87608000  19.89932000 18.45876000  22.94552000  20.12448000 17.93272000  21.12848000  19.15328000 16.57520000  22.22940000  19.35984000 17.34856000  21.22204000  20.74612000 18.69912000  23.29148000  19.13284000 19.38872000  22.66804000  20.58392000 18.10268000  23.78960000  20.74024000
 17.46020000  21.82528000  19.89216000 18.48196000  22.97944000  20.13220000 18.01736000  21.15852000  19.25596000 16.58484000  22.09680000  19.26880000 16.92400000  21.36428000  20.76632000 18.52764000  23.54748000  19.17344000 19.49996000  22.65820000  20.33616000 18.26680000  23.70504000  20.90916000
 17.45048000  21.87028000  19.87528000 18.48968000  22.94588000  20.12864000 17.08140000  21.55240000  20.89856000 18.00596000  20.95580000  19.60404000 16.76252000  22.02604000  19.09900000 18.26292000  23.33740000  21.09436000 18.20820000  23.74800000  19.44652000 19.52368000  22.77400000  19.81072000
 17.48704000  21.81808000  19.87628000 18.44364000  23.00208000  20.13436000 17.98568000  20.94064000  19.41000000 16.68580000  22.22584000  19.28208000 17.00464000  21.42656000  20.73148000 18.34004000  23.75268000  19.40104000 19.46828000  22.55232000  19.88048000 18.47300000  23.44804000  21.16816000
 17.48516000  21.81336000  19.86920000 18.45152000  22.99996000  20.14956000 17.82624000  20.76928000  20.03780000 17.26048000  21.88632000  18.81768000 16.48808000  21.87036000  20.50840000 18.00260000  24.04880000  20.26760000 19.04548000  22.98940000  19.23404000 19.26332000  22.86380000  20.91068000
 17.46872000  21.83220000  19.85060000 18.47152000  22.98000000  20.12024000 17.39464000  21.45692000  18.80524000 16.43316000  22.05400000  20.11496000 17.71716000  21.02336000  20.52712000 18.88344000  23.52736000  19.30492000 19.41232000  22.65208000  20.75892000 18.00264000  23.72744000  20.83604000
 17.46172000  21.86664000  19.85228000 18.46692000  22.94836000  20.16664000 18.07352000  20.95824000  19.56392000 16.84072000  22.16396000  19.04176000 16.78152000  21.38396000  20.63692000 18.03556000  23.92868000  19.88444000 19.35096000  22.81728000  19.47644000 18.89932000  23.15540000  21.17120000
 17.45984000  21.81664000  19.86396000 18.47736000  22.99864000  20.16820000 16.81032000  21.36340000  20.54244000 17.93876000  21.00688000  19.32068000 16.73196000  22.24164000  19.17532000 18.82708000  23.07432000  21.13028000 18.17988000  23.98576000  19.78544000 19.39180000  22.73252000  19.66260000
 17.43740000  21.86636000  19.81876000 18.50504000  22.95512000  20.15424000 17.87400000  20.78804000  19.72364000 16.72408000  21.98512000  19.01712000 16.91264000  21.84680000  20.73776000 19.32456000  22.44868000  20.58592000 18.16976000  23.70592000  20.94072000 18.81208000  23.55580000  19.31636000
 17.43660000  21.87152000  19.86724000 18.49688000  22.95000000  20.13844000 17.63784000  20.93952000  20.32876000 17.60816000  21.55596000  18.86224000 16.37896000  22.11776000  20.08568000 19.52136000  22.60788000  20.17340000 18.33100000  23.40820000  21.12380000 18.44692000  23.70056000  19.35832000
 17.45208000  21.87376000  19.83660000 18.49644000  22.94780000  20.15548000 18.01708000  20.93412000  19.63800000 16.62024000  22.12888000  19.10464000 16.73560000  21.60632000  20.70584000 18.29904000  23.29280000  21.14660000 18.51776000  23.78568000  19.39140000 19.55532000  22.58156000  20.10780000
 17.42552000  21.89376000  19.88292000 18.51504000  22.90436000  20.12792000 17.38272000  21.05860000  20.57516000 17.48336000  21.43680000  18.87928000 16.44256000  22.29668000  19.91572000 19.47076000  22.75564000  20.79208000 18.02744000  23.85360000  20.51468000 19.03328000  23.20792000  19.19416000
 17.40232000  21.91764000  19.89252000 18.52628000  22.90240000  20.12064000 16.82028000  21.48244000  20.78620000 17.80308000  20.91444000  19.52592000 16.76336000  22.26544000  19.10008000 19.58884000  22.53212000  19.85164000 18.51656000  23.34804000  21.13748000 18.49040000  23.80516000  19.44224000
 17.41532000  21.89120000  19.84224000 18.52368000  22.92396000  20.13864000 17.62104000  20.93148000  20.41748000 17.17524000  21.70288000  18.81120000 16.58492000  22.18636000  20.47744000 19.45044000  22.41480000  20.44964000 18.34444000  23.70628000  20.88120000 18.68200000  23.46356000  19.19112000
 17.39000000  21.87016000  19.89344000 18.55940000  22.92412000  20.10592000 17.74628000  20.84744000  19.96976000 17.00976000  22.13000000  18.87424000 16.57148000  21.95712000  20.59548000 19.49812000  22.53192000  20.52312000 18.14880000  23.64288000  20.80964000 18.76000000  23.54516000  19.23508000
 17.43096000  21.89100000  19.88424000 18.50300000  22.91880000  20.12728000 16.53936000  22.47080000  19.65776000 17.19136000  21.24264000  20.70848000 17.70540000  21.22160000  19.01464000 18.09924000  23.90868000  20.10268000 19.26512000  22.80456000  19.37820000 19.11792000  22.82164000  21.00096000
 17.39788000  21.88640000  19.88948000 18.52044000  22.92812000  20.13552000 17.75980000  21.12140000  19.09588000 16.54824000  22.39984000  19.37216000 17.23196000  21.26664000  20.74996000 19.09104000  22.92488000  21.07572000 18.15188000  23.98928000  19.95872000 19.32180000  22.71100000  19.44956000
 17.40264000  21.91588000  19.89160000 18.52060000  22.91464000  20.10724000 17.10400000  21.47536000  20.85776000 17.88868000  21.09400000  19.27596000 16.63692000  22.13720000  19.14980000 19.48692000  22.42188000  20.07168000 18.51032000  23.27036000  21.12840000 18.41896000  23.82384000  19.52996000
 17.41248000  21.85636000  19.87504000 18.52632000  22.94872000  20.12572000 17.65640000  21.13912000  19.09952000 16.57028000  22.47812000  19.61396000 17.14944000  21.21612000  20.71036000 18.71904000  23.15396000  21.21564000 18.20328000  23.88784000  19.66156000 19.56240000  22.65060000  19.68952000
 17.44828000  21.87984000  19.90268000 18.50792000  22.90368000  20.11112000 17.66292000  21.41292000  18.92288000 16.53620000  22.46640000  19.87120000 17.21472000  21.19516000  20.65196000 18.32092000  23.20992000  21.16908000 18.39624000  23.81260000  19.48172000 19.52232000  22.68572000  19.73864000
 17.41648000  21.88052000  19.86900000 18.53612000  22.92696000  20.10296000 17.42776000  21.08112000  20.66776000 17.51236000  21.46348000  18.84176000 16.44732000  22.27376000  20.19608000 19.38844000  22.58964000  20.64184000 18.10944000  23.66660000  20.79168000 18.81112000  23.42312000  19.19468000
 17.44540000  21.88140000  19.87988000 18.49664000  22.93352000  20.11004000 16.38188000  22.28584000  20.08008000 17.63772000  21.01980000  20.59332000 17.39524000  21.47544000  18.84520000 18.90956000  23.27140000  19.22676000 19.27604000  22.46656000  20.69564000 18.22172000  23.88944000  20.67908000
 17.39752000  21.86876000  19.90836000 18.52128000  22.95956000  20.08856000 16.87576000  21.58172000  20.86424000 17.82096000  20.94800000  19.52548000 16.77144000  22.08496000  19.01952000 19.47320000  22.80064000  19.46572000 18.92472000  22.81908000  21.09264000 18.23300000  24.01436000  20.06932000
 17.41820000  21.86844000  19.86200000 18.52920000  22.93000000  20.16424000 17.44692000  21.43532000  18.91048000 16.49216000  22.45728000  19.97736000 17.51128000  20.98056000  20.53052000 19.55224000  22.66820000  20.45244000 18.04760000  23.71572000  20.67936000 18.70816000  23.34800000  19.13752000
 17.40516000  21.88348000  19.90088000 18.52484000  22.94220000  20.11252000 16.60024000  22.29044000  19.21080000 16.92704000  21.26528000  20.76980000 17.92232000  21.06868000  19.35320000 18.98140000  22.77348000  21.08012000 18.25276000  23.98048000  20.08636000 19.28200000  22.90204000  19.34040000
 17.41768000  21.87664000  19.88212000 18.53264000  22.93660000  20.10724000 17.30336000  21.54496000  18.84332000 16.50492000  22.41128000  20.23588000 17.61208000  20.86316000  20.38288000 19.43844000  22.61396000  20.53076000 18.10512000  23.49860000  20.86600000 18.75960000  23.49656000  19.26780000
 17.42808000  21.86368000  19.88624000 18.52540000  22.94780000  20.08876000 17.37404000  21.15956000  20.67652000 17.52884000  21.27468000  18.94448000 16.43284000  22.34988000  19.86488000 18.79700000  23.57976000  19.19128000 19.37096000  22.49264000  20.68436000 18.18224000  23.59300000  20.93632000
 17.44140000  21.86264000  19.87764000 18.50244000  22.94092000  20.13300000 16.46432000  22.08668000  20.44412000 17.88956000  20.83212000  19.99760000 16.95172000  21.99880000  18.87888000 18.21828000  23.82708000  20.85904000 18.83912000  23.26972000  19.11536000 19.43768000  22.52956000  20.57796000
 17.44672000  21.88676000  19.87676000 18.49476000  22.94032000  20.14992000 17.45256000  21.41732000  18.85600000 16.33148000  22.29572000  19.98500000 17.51356000  20.92572000  20.43748000 19.36944000  22.70404000  19.40732000 18.88728000  22.93520000  21.18740000 18.27468000  23.98584000  19.80892000
 17.44912000  21.85576000  19.88364000 18.50704000  22.94708000  20.12036000 17.22528000  21.13388000  20.75332000 17.58348000  21.35412000  18.91224000 16.51964000  22.50396000  19.70224000 18.02896000  23.81576000  20.40476000 19.15176000  23.10744000  19.25840000 19.14440000  22.63712000  20.92136000
 17.41784000  21.87476000  19.84192000 18.53136000  22.93184000  20.14900000 16.47912000  22.31904000  19.42316000 17.06768000  21.50956000  20.79892000 17.79376000  21.05132000  19.25484000 19.45684000  22.77832000  19.63968000 18.86136000  23.05056000  21.19128000 18.07852000  23.79888000  19.80056000
 17.43488000  21.89708000  19.85284000 18.49188000  22.93656000  20.14688000 17.98744000  20.98556000  19.42616000 16.61952000  22.18784000  19.19256000 16.95392000  21.52244000  20.78524000 18.25976000  23.78244000  20.80636000 18.88260000  23.27308000  19.19120000 19.30080000  22.43404000  20.60176000
 17.40608000  21.87264000  19.82504000 18.51536000  22.95028000  20.15948000 16.68168000  22.10000000  19.06724000 16.86452000  21.64192000  20.73216000 18.01396000  21.02692000  19.68972000 18.25884000  23.97160000  20.38972000 19.14224000  23.03412000  19.32668000 19.10656000  22.53864000  20.97904000
 17.41404000  21.84924000  19.86836000 18.53640000  22.96388000  20.15128000 16.60824000  21.73572000  20.65340000 17.72744000  20.80940000  19.71928000 17.01948000  22.12596000  18.90808000 18.53344000  23.77620000  19.37304000 19.55588000  22.53632000  20.07428000 18.27776000  23.44656000  21.03800000
 17.45364000  21.85484000  19.85200000 18.49276000  22.96524000  20.15468000 17.38380000  21.39872000  18.79100000 16.43052000  22.12252000  20.10112000 17.61716000  20.98512000  20.61684000 19.06776000  22.90844000  21.05796000 18.06156000  23.98816000  20.09828000 19.20940000  22.94380000  19.25496000
 17.43676000  21.85060000  19.86272000 18.50072000  22.96244000  20.15284000 16.46288000  22.04676000  20.16324000 17.67896000  20.93564000  20.40428000 17.36424000  21.56896000  18.81608000 18.55456000  23.56200000  19.25556000 19.54888000  22.65044000  20.20292000 18.26696000  23.66744000  20.97252000
 17.47964000  21.85876000  19.87284000 18.45492000  22.95952000  20.15352000 17.28724000  21.15688000  20.73344000 17.74816000  21.15204000  19.02268000 16.49128000  22.16820000  19.55876000 19.27892000  22.79584000  19.52796000 18.90400000  23.14804000  21.13192000 18.20160000  23.94740000  19.71152000
 17.43912000  21.84396000  19.85960000 18.51628000  22.96216000  20.15228000 17.70972000  21.38748000  18.93232000 16.40472000  22.18136000  19.69760000 17.40024000  21.16876000  20.69048000 18.04080000  23.59488000  20.82220000 18.64092000  23.49992000  19.15200000 19.46616000  22.68100000  20.56400000
 17.45740000  21.89024000  19.88772000 18.48200000  22.93824000  20.11084000 17.06276000  21.78456000  18.85452000 16.45288000  21.79432000  20.48264000 17.94156000  20.90836000  20.02248000 18.26976000  23.60868000  21.06376000 18.65912000  23.62804000  19.30372000 19.46720000  22.52304000  20.29016000
 17.44496000  21.85296000  19.91136000 18.51268000  22.94892000  20.10292000 17.09664000  21.29584000  20.78752000 17.63700000  21.06524000  19.12596000 16.55864000  22.39864000  19.44248000 19.24412000  23.07560000  19.25016000 19.11100000  22.81168000  20.99132000 17.98888000  23.91680000  20.23260000
 17.42596000  21.87428000  19.89380000 18.52784000  22.92796000  20.09300000 17.79340000  20.77420000  20.01868000 16.86672000  21.91532000  18.90536000 16.61520000  21.88432000  20.61064000 19.31124000  22.72688000  20.83500000 18.07376000  23.86304000  20.56804000 19.02156000  23.39580000  19.21924000