LAMMPS (7 Aug 2019)
Reading data file ...
  orthogonal box = (-20 -20 -20) to (20 20 20)
  1 by 1 by 1 MPI processor grid
  reading atoms ...
  8 atoms
  read_data CPU = 0.000155926 secs
Summary of lammps deepmd module ...
  >>> Info of deepmd-kit:
  installed to:       /home/mandrade/deepmd_new
  source:             v1.1.4-dirty
  source brach:       HEAD
  source commit:      07c42c1
  source commit at:   2020-02-01 19:02:21 +0800
  build float prec:   double
  build with tf inc:  /home/mandrade/gnu_openmp_libs/include
  build with tf lib:  /home/mandrade/gnu_openmp_libs/lib/libtensorflow_cc.so;/home/mandrade/gnu_openmp_libs/lib/libtensorflow_framework.so
  set tf intra_op_parallelism_threads: 4
  set tf inter_op_parallelism_threads: 0
  >>> Info of lammps module:
  use deepmd-kit at:  /home/mandrade/deepmd_new
  source:             v1.1.4-dirty
  source branch:      master
  source commit:      07c42c1
  source commit at:   2020-02-01 19:02:21 +0800
  build float prec:   double
  build with tf inc:  /home/mandrade/gnu_libs/include
  build with tf lib:  /home/mandrade/gnu_libs/lib/libtensorflow_cc.so;/home/mandrade/gnu_libs/lib/libtensorflow_framework.so
  >>> Info of model(s):
  using   3 model(s): ./graph1.pb ./graph2.pb ./graph3.pb 
  rcut in model:      5
  ntypes in model:    2
New timer settings: style=normal  mode=nosync  timeout=00:20:00
Neighbor list info ...
  update every 1 steps, delay 10 steps, check yes
  max neighbors/atom: 2000, page size: 100000
  master list distance cutoff = 7
  ghost atom cutoff = 7
  binsize = 3.5, bins = 12 12 12
  1 neighbor lists, perpetual/occasional/extra = 1 0 0
  (1) pair deepmd, perpetual
      attributes: , newton on
      pair build: full/bin/atomonly
      stencil: full/bin/3d
      bin: standard
Setting up Verlet run ...
  Unit style    : metal
  Current step  : 0
  Time step     : 0.0005
  Walltime left : 0:19:59.99
Per MPI rank memory allocation (min/avg/max) = 3.701 | 3.701 | 3.701 Mbytes
Step Temp PotEng TotEng Press 
       0          300   -406.91272   -406.64127    18.418817 
     100    146.46896   -406.74397   -406.61145   -55.289699 
     200    241.80111   -406.75685   -406.53806    52.166768 
     300    248.94162   -406.65079   -406.42554   -40.497513 
     400    291.99321   -406.63448   -406.37028    4.4838872 
     500    95.950813   -406.40106   -406.31424    44.259189 
     600    130.37175   -406.42518   -406.30722   -16.706491 
     700    343.03879   -406.56912   -406.25873    11.706586 
     800     302.8236   -406.54999   -406.27599    25.143316 
     900    284.21098   -406.55686    -406.2997   -30.555174 
    1000    448.16102   -406.78882   -406.38332    29.677199 
    1100    228.39987   -406.65614   -406.44948   -42.396328 
    1200    286.09905   -406.70104   -406.44217       27.179 
    1300    378.10606   -406.76463   -406.42251   -22.273365 
    1400    365.02146   -406.73579   -406.40551   -21.953294 
    1500     276.5219   -406.61305   -406.36285    45.695266 
    1600      390.807   -406.68788   -406.33427    -50.91133 
    1700      334.241   -406.58604   -406.28361    23.528626 
    1800    196.29881   -406.42936   -406.25175    22.410287 
    1900    343.11502   -406.48342   -406.17296   -11.177903 
    2000    610.37249   -406.65248   -406.10021   -1.6914168 
    2100    293.16734   -406.42082   -406.15555    24.850861 
    2200     281.5332   -406.53298   -406.27824    1.6042675 
    2300    463.56583   -406.76426   -406.34481   -8.4797355 
    2400    204.07598   -406.58936   -406.40471   -9.1372179 
    2500    357.52107    -406.7281   -406.40461    27.189732 
    2600    267.53845   -406.65622   -406.41414   -33.376964 
    2700    375.15327   -406.74617   -406.40673    2.7678486 
    2800    209.55168   -406.58809   -406.39848    14.221243 
    2900    254.92609    -406.6264   -406.39574   -14.918759 
    3000    439.11606    -406.7878   -406.39048    1.4625262 
    3100    178.75275   -406.50056   -406.33882   -4.7395113 
    3200    194.24898   -406.52945   -406.35368    17.997875 
    3300    394.96283   -406.69313   -406.33576   -1.4266873 
    3400    322.89478   -406.63936    -406.3472   -40.764252 
    3500    153.60015   -406.49016   -406.35118    55.994974 
    3600    438.12045   -406.75719   -406.36077   -23.562303 
    3700    325.32056   -406.74401   -406.44965   -21.302738 
    3800    200.14026   -406.66504   -406.48395     36.29096 
    3900     190.9013    -406.6911   -406.51837   -23.070181 
    4000    218.91553   -406.68701   -406.48893    4.2341477 
    4100     188.3992   -406.58517   -406.41471    15.772371 
    4200    348.23057   -406.61173   -406.29665  -0.79878984 
    4300    374.39388    -406.4888   -406.15004   -5.3044904 
    4400    538.39129   -406.53166   -406.04451    4.3917484 
    4500    377.99008   -406.47219   -406.13018    23.509466 
    4600    330.08202    -406.5474   -406.24874    -19.53528 
    4700    423.23163   -406.69057   -406.30762    10.552403 
    4800    312.21284   -406.63062   -406.34813   -24.091453 
    4900    329.02565   -406.65564   -406.35793    31.380443 
    5000    335.00405   -406.70018   -406.39706    -26.10641 
    5100    321.59543   -406.69447   -406.40348   -13.249944 
    5200    248.78436   -406.64494   -406.41984    42.094908 
    5300    279.38369   -406.67164   -406.41884    -26.85592 
    5400    247.99121   -406.64221   -406.41782   -19.945788 
    5500    122.48904   -406.58253    -406.4717    54.108282 
    5600    246.18497   -406.72678   -406.50402   -35.274591 
    5700    274.34278   -406.78179   -406.53356   -7.8409624 
    5800    135.92769   -406.66443   -406.54144    21.452709 
    5900    182.61504   -406.62741   -406.46217    2.3723262 
    6000    373.78127   -406.72147   -406.38326   -17.927088 
    6100    349.45356   -406.53467   -406.21848   -5.2679436 
    6200    407.37882   -406.48151   -406.11291    7.1674721 
    6300    334.83365   -406.47121   -406.16825    37.253985 
    6400    553.02896   -406.72153   -406.22114   -47.250291 
    6500    403.29158   -406.66586   -406.30095    4.4772173 
    6600    243.98581   -406.53861   -406.31784    27.719795 
    6700    274.52606   -406.59537   -406.34697     -12.6063 
    6800    465.31157   -406.78387   -406.36285   -7.4858019 
    6900    343.64842   -406.62718   -406.31624    2.8167822 
    7000    265.94278   -406.67592   -406.43529    17.461531 
    7100    255.35341   -406.65574   -406.42469   -14.628953 
    7200    309.37668   -406.69961   -406.41968   -10.821459 
    7300    243.23036   -406.62936   -406.40928    19.201658 
    7400    385.76826   -406.67751   -406.32846    7.3677825 
    7500    399.85924   -406.78115   -406.41935   -26.126826 
    7600    175.51181   -406.66174   -406.50294    9.8157401 
    7700    205.78676   -406.72958   -406.54338    5.0491017 
    7800    214.42859    -406.7084   -406.51438   -9.1644613 
    7900    262.91195   -406.73835   -406.50046   -0.1663701 
    8000    213.42914   -406.68703   -406.49392     13.41572 
    8100    307.05759   -406.70777   -406.42993   -19.507759 
    8200    404.62281    -406.6464   -406.28028    3.9103009 
    8300     450.6656   -406.67011   -406.26233     2.869278 
    8400    473.30446   -406.73474   -406.30649    22.588442 
    8500    421.20517   -406.76398   -406.38287   -33.575964 
    8600    283.64739   -406.78341   -406.52676    26.762633 
    8700    329.09991   -406.79237    -406.4946   -6.4174182 
    8800    388.88605   -406.79911   -406.44724  -0.50912338 
    8900    359.18623   -406.80197   -406.47698    2.4766494 
    9000    257.15741   -406.71472   -406.48203    13.034424 
    9100    375.06904   -406.73872   -406.39935   -17.020525 
    9200    276.37593   -406.63268    -406.3826    2.2207305 
    9300    241.74415   -406.58439   -406.36565    1.1635359 
    9400    277.67227   -406.60596   -406.35472     8.953617 
    9500    266.17897   -406.61165   -406.37081   -29.256571 
    9600    289.77389   -406.74318   -406.48099    34.885545 
    9700    171.49177   -406.65513   -406.49996   -23.791686 
    9800    223.64287   -406.72257   -406.52021    8.5424124 
    9900    235.94389     -406.722   -406.50852    3.3638253 
   10000    205.60186   -406.65675   -406.47072   -16.081571 
   10100    329.20096   -406.62605   -406.32818    15.771924 
   10200    459.84078   -406.59832   -406.18225   -3.4438571 
   10300    566.05331   -406.63544   -406.12327   -20.853086 
   10400    586.59942    -406.6578   -406.12703    13.389875 
   10500    463.55894   -406.69055   -406.27111    -1.210714 
   10600      270.588   -406.57871   -406.33388   -15.389301 
   10700     390.4836   -406.70868   -406.35536    19.621522 
   10800    298.65928   -406.59184   -406.32161    -27.08115 
   10900    208.78202   -406.59647   -406.40756    36.349673 
   11000    257.87308    -406.6286   -406.39527   -31.880431 
   11100    217.55529    -406.6196   -406.42275    7.8563426 
   11200    220.56135   -406.63353   -406.43396    6.2834496 
   11300    120.55157   -406.59452   -406.48544    5.4924802 
   11400    343.98263   -406.79838   -406.48714   -11.454622 
   11500    102.01217   -406.66238   -406.57008    17.700469 
   11600     195.6307   -406.78335   -406.60634   -10.176065 
   11700    145.87325   -406.71578   -406.58379    3.2832155 
   11800    217.02633   -406.68593   -406.48957   -1.7668697 
   11900     488.1383   -406.78383   -406.34215    17.186125 
   12000    533.84994   -406.81118   -406.32815   -25.004347 
   12100    431.48979   -406.70722    -406.3168    2.7049197 
   12200    450.58446   -406.68998   -406.28228    25.204343 
   12300    435.40855   -406.78551   -406.39154   -27.481208 
   12400      254.728    -406.6714   -406.44091    2.6998188 
   12500    161.63143   -406.58736   -406.44111    13.300353 
   12600    409.09124    -406.7814   -406.41125   -7.6551732 
   12700    368.91618   -406.69554   -406.36174   -26.942328 
   12800    209.33629   -406.53285   -406.34344     41.31894 
   12900    459.63878   -406.73229    -406.3164   -24.961543 
   13000    444.10177   -406.64184   -406.24001    7.0445945 
   13100    388.49199   -406.79244   -406.44093    3.7116265 
   13200    256.36312   -406.73327   -406.50131   -7.6453232 
   13300    211.52795   -406.72793   -406.53654   -5.2247857 
   13400    224.81325   -406.71921    -406.5158    21.775963 
   13500    278.06526   -406.73957   -406.48797   -39.399832 
   13600    172.13188   -406.53922   -406.38348     53.84738 
   13700    566.57839   -406.71411   -406.20145   -37.371892 
   13800    287.65388   -406.48532   -406.22505    21.815387 
   13900    367.16766   -406.58278   -406.25056  -0.54810965 
   14000    375.63277   -406.60662   -406.26674   -10.670456 
   14100    228.23071   -406.53883   -406.33233    16.650709 
   14200    416.97922   -406.81244   -406.43515    -11.75453 
   14300    187.77657   -406.65507   -406.48516   -1.1356229 
   14400    339.96439   -406.78917   -406.48157    12.912628 
   14500    221.21221   -406.65479   -406.45463   -23.765138 
   14600     250.6353   -406.67417   -406.44739    13.119739 
   14700    333.11739    -406.7011   -406.39968     9.192015 
   14800     294.0932   -406.57407   -406.30797   -45.064695 
   14900    402.45569   -406.59306   -406.22891    60.802606 
   15000    332.27177   -406.48976   -406.18911   -47.333937 
   15100    538.32749    -406.6632   -406.17611    18.739312 
   15200    320.76569   -406.57342   -406.28318    13.443925 
   15300    197.52376   -406.59579   -406.41707   -21.034911 
   15400    332.83568   -406.74723   -406.44607     8.152753 
   15500    264.12203   -406.63378    -406.3948    3.8085064 
   15600    326.79854    -406.6728   -406.37711   -36.234687 
   15700    272.49584   -406.70659   -406.46003    43.564808 
   15800    332.26181   -406.72809   -406.42745   -36.882081 
   15900    241.74828   -406.60037   -406.38164    6.9964906 
   16000    500.32241    -406.7847     -406.332    24.740018 
   16100    327.23912    -406.5363    -406.2402   -72.199214 
   16200    473.23659   -406.56923   -406.14103    59.010308 
   16300    556.00675   -406.62728   -406.12419   0.65232088 
   16400    242.65185   -406.40806    -406.1885    -43.52484 
   16500    419.31663   -406.70749   -406.32808    19.908317 
   16600    318.65617   -406.62433     -406.336     30.98153 
   16700    153.13946   -406.55359   -406.41503    -58.57587 
   16800    203.79338    -406.6258   -406.44141    69.049953 
   16900    179.34029   -406.61398   -406.45171   -41.120789 
   17000    282.31472   -406.66489   -406.40944     19.41459 
   17100    509.86627    -406.7243   -406.26296    -1.897286 
   17200    225.88087   -406.54784   -406.34346   -8.9230552 
   17300    410.08167    -406.7647   -406.39365    19.127971 
   17400    221.26436   -406.65095   -406.45074   -16.142821 
   17500    196.07201   -406.69401    -406.5166   -7.4385581 
   17600    213.28454   -406.72247   -406.52949    38.605602 
   17700    138.96115   -406.66219   -406.53645   -57.801481 
   17800    264.46144   -406.67936   -406.44007    50.525667 
   17900    292.28223   -406.62072   -406.35626   -11.902674 
   18000    460.03116   -406.68793   -406.27168   -21.314404 
   18100    499.11385   -406.61822   -406.16661     11.99864 
   18200    395.58932   -406.52273    -406.1648   -32.152734 
   18300    355.90982   -406.63301   -406.31098    41.148374 
   18400    407.97516   -406.79406   -406.42492   -23.894979 
   18500    399.21779   -406.73458   -406.37335   -7.8895154 
   18600    242.06283   -406.70146   -406.48244    21.459502 
   18700    194.97748   -406.67179   -406.49537  -0.57587014 
   18800    236.47383   -406.69331   -406.47935   -19.558788 
   18900    317.40347   -406.59727   -406.31008    44.981498 
   19000    294.62916   -406.52151   -406.25492   -37.792566 
   19100    325.06911   -406.50008   -406.20595      40.7735 
   19200    371.22939   -406.46669    -406.1308   -29.676556 
   19300    505.91853   -406.51142   -406.05366    39.946431 
   19400    615.12288   -406.64628    -406.0897    -45.69262 
   19500    281.90178   -406.53115   -406.27608     24.10499 
   19600    375.87953   -406.61831   -406.27821  -0.37941282 
   19700    326.58902   -406.65216   -406.35666   -37.031648 
   19800    226.01867     -406.602   -406.39749    49.623458 
   19900    294.58256   -406.64122   -406.37468   -30.410634 
   20000    333.19642    -406.7327   -406.43121   -7.5741394 
   20100     183.1822    -406.6215   -406.45575    30.073694 
   20200     176.5324    -406.6429   -406.48317   -35.198065 
   20300    226.08562   -406.70637   -406.50181    4.6618238 
   20400    411.18855   -406.80145    -406.4294    29.491706 
   20500     224.9242   -406.64077   -406.43725   -61.405257 
   20600    350.27138   -406.71399   -406.39705    75.315739 
   20700    213.22577   -406.57375   -406.38082   -46.776553 
   20800    201.47076   -406.52878   -406.34648    23.800259 
   20900    363.39732   -406.64773   -406.31892    15.066435 
   21000    214.47275   -406.36974   -406.17568   -34.500013 
   21100    345.99599   -406.55387   -406.24081    34.763177 
   21200    436.01719   -406.63069   -406.23617    2.6429737 
   21300    334.43005   -406.65389    -406.3513   -43.762328 
   21400    214.79249   -406.59611   -406.40177    57.221098 
   21500    218.44792   -406.62998   -406.43232   -43.693296 
   21600    347.29546   -406.78454    -406.4703    5.1178273 
   21700    392.11351   -406.77913   -406.42434    20.089109 
   21800    248.64142   -406.60181   -406.37684    -58.50411 
   21900    293.02388   -406.63191   -406.36677    59.121401 
   22000     228.1367   -406.58497   -406.37855   -36.222503 
   22100     274.2487   -406.64127   -406.39313   -5.9386787 
   22200    215.26725   -406.53065   -406.33587    37.485529 
   22300    277.73357   -406.57902   -406.32772   -21.205916 
   22400     436.3792   -406.77711   -406.38227   -7.1728537 
   22500     305.6561   -406.72679   -406.45022    17.120327 
   22600    312.22533   -406.70231    -406.4198   -23.693941 
   22700    270.15355   -406.70999   -406.46555    37.289635 
   22800    198.03657   -406.69573   -406.51654   -42.693511 
   22900    143.22161   -406.65553   -406.52594    36.438303 
   23000    253.45572   -406.68065   -406.45132   -18.504102 
   23100    288.19681   -406.56561   -406.30484   -16.882816 
   23200    500.85609   -406.70373   -406.25055     42.38643 
   23300    443.12569   -406.66682   -406.26587   -6.8323031 
   23400    375.19743   -406.70896   -406.36947   -30.064991 
   23500    288.87695   -406.70099   -406.43961    50.027934 
   23600    184.24456   -406.58599   -406.41928   -51.030737 
   23700    380.72792   -406.74538   -406.40089    37.332915 
   23800    236.08474   -406.58053   -406.36692   -22.476494 
   23900    414.07993   -406.68113   -406.30646    5.5541208 
   24000    461.10327    -406.7561   -406.33888  -0.99059716 
   24100     183.7102   -406.53363   -406.36741   -1.7835153 
   24200    319.37645   -406.64354   -406.35456    12.897903 
   24300    267.09204   -406.62346   -406.38179   -21.346732 
   24400    364.32622   -406.74806   -406.41841    6.6757309 
   24500    193.64127   -406.63147   -406.45626    20.873782 
   24600    281.65762   -406.72173   -406.46688   -29.833423 
   24700    438.54912   -406.79145   -406.39464    15.567735 
   24800      335.709   -406.79417   -406.49042   -3.1241128 
   24900    165.58538   -406.68471   -406.53488   -15.013873 
   25000    222.17074   -406.74213   -406.54111    17.564026 
   25100    137.34546   -406.67426   -406.54999   -20.162734 
   25200    278.76609   -406.69906   -406.44682    14.232238 
   25300    343.89297   -406.71872   -406.40756   -10.505169 
   25400    302.48544    -406.5236   -406.24991    -15.85923 
   25500     354.1899   -406.51785   -406.19737     32.00321 
   25600    275.91547   -406.47098   -406.22132   -15.116169 
   25700     412.8068   -406.73796   -406.36444   -1.3550725 
   25800    160.53165   -406.53666    -406.3914    11.725818 
   25900     226.5998   -406.58616   -406.38113    -6.970899 
   26000    375.06312   -406.75353   -406.41416    9.5881095 
   26100    154.43506   -406.51759   -406.37785   -39.585573 
   26200    269.14013   -406.64616   -406.40263    41.797499 
   26300     371.7021   -406.69785   -406.36153   -27.740299 
   26400    496.73998   -406.80303   -406.35357   -19.490653 
   26500    212.99025   -406.55711   -406.36439    45.857147 
   26600    271.54809   -406.66688   -406.42118   -45.991896 
   26700    370.02422   -406.81089   -406.47609    16.205891 
   26800    167.91908   -406.64184   -406.48991    16.173147 
   26900    229.19851   -406.77225   -406.56487   -32.759551 
   27000    166.18177   -406.68344   -406.53308    27.690512 
   27100    294.78602   -406.74885   -406.48212   -12.679462 
   27200    298.82437    -406.5792   -406.30882    -15.79982 
   27300    442.91515   -406.62841   -406.22765    25.933926 
   27400    216.05887   -406.39391   -406.19841   -19.966051 
   27500    429.95716   -406.62413    -406.2351    32.972521 
   27600     425.0206   -406.66506   -406.28049   -34.270463 
   27700    340.32509   -406.65391   -406.34597    8.7453007 
   27800    315.76916    -406.6793   -406.39358     35.87378 
   27900    287.35626   -406.69004   -406.43004   -40.011422 
   28000    250.25642   -406.65334    -406.4269    12.979095 
   28100    258.84058   -406.65493   -406.42073    19.570169 
   28200    212.84759   -406.56326   -406.37067   -31.142003 
   28300    345.24661   -406.67249    -406.3601    22.007258 
   28400     304.6285   -406.61907   -406.34344    -11.20524 
   28500     314.5742   -406.60517   -406.32053   -3.3858701 
   28600    315.62125    -406.6478   -406.36222    2.2130409 
   28700    340.64645   -406.67042    -406.3622    11.545234 
   28800    300.79781    -406.5932   -406.32104   -16.495868 
   28900     375.7644   -406.71797   -406.37797    5.2308257 
   29000    368.75839   -406.65748   -406.32382    4.9985466 
   29100    338.44118   -406.64217   -406.33594   -21.833928 
   29200    267.61273   -406.63221   -406.39007    10.452361 
   29300    348.14604   -406.81142   -406.49641    20.372105 
   29400    193.81229   -406.70349   -406.52812   -40.655301 
   29500    201.18055   -406.69018   -406.50815    29.858974 
   29600    167.36723    -406.6562   -406.50476    10.898193 
   29700    234.52822   -406.65157   -406.43936   -37.103782 
   29800    380.94232   -406.72145   -406.37677    53.156901 
   29900     271.2053   -406.55217   -406.30678   -30.011014 
   30000    498.31746   -406.72602   -406.27514    15.068848 
   30100    191.84064   -406.46063   -406.28705   -16.464562 
   30200    449.71742    -406.6765   -406.26959    25.848534 
   30300     419.9252   -406.75985   -406.37989  0.081639113 
   30400    355.64308     -406.774    -406.4522   -18.993378 
   30500    188.20387   -406.67574   -406.50545    18.601327 
   30600    97.864922   -406.60033   -406.51178  -0.16533932 
   30700    262.34221   -406.72758    -406.4902   -18.938326 
   30800     249.6972   -406.61865   -406.39272    31.351335 
   30900    276.26496    -406.5747   -406.32473   -31.394799 
   31000    382.54003   -406.60047   -406.25434    25.722591 
   31100    341.61585   -406.55386   -406.24476   -23.658593 
   31200    387.85744   -406.61253   -406.26158    11.322308 
   31300    242.46422   -406.52892   -406.30954   0.37023659 
   31400    237.83077   -406.50971   -406.29452    1.0170481 
   31500     372.5046   -406.67281   -406.33576    8.2022244 
   31600    324.28141   -406.59892    -406.3055   -12.802349 
   31700    427.58998   -406.71948   -406.33259      5.55398 
   31800    279.22562   -406.53562   -406.28297    3.2835762 
   31900    380.87554   -406.71269   -406.36807   -17.988529 
   32000    292.35275   -406.66941   -406.40488    13.990076 
   32100    317.75907   -406.72904   -406.44153   -16.999348 
   32200    178.74507   -406.64246   -406.48073    12.171193 
   32300    329.10864   -406.75462   -406.45683   -7.2155668 
   32400    110.28438   -406.48151   -406.38172   -12.073574 
   32500    618.07215   -406.81644    -406.2572    31.099177 
   32600    310.99009   -406.42254   -406.14115   -55.829403 
   32700     357.4615   -406.39725   -406.07382    48.528498 
   32800    406.20221   -406.50973   -406.14219    11.235216 
   32900    431.42858   -406.62119   -406.23083   -45.313598 
   33000    235.31592    -406.5589   -406.34598    26.127558 
   33100    350.26925   -406.67037   -406.35344    25.924795 
   33200    314.25553   -406.65558   -406.37123   -59.826144 
   33300    237.94491   -406.61698   -406.40168    49.779349 
   33400    234.88071   -406.62027   -406.40775   -20.662844 
   33500    345.59666   -406.69393   -406.38123    3.4073786 
   33600    336.63637    -406.7101   -406.40551   0.05849476 
   33700    157.16838   -406.53247   -406.39026   -7.2328928 
   33800    272.09065    -406.6433   -406.39711    29.575719 
   33900     363.6014   -406.66167   -406.33267   -30.816213 
   34000    382.72154   -406.68599   -406.33969   -3.1862124 
   34100    329.09897   -406.67097   -406.37319    28.029592 
   34200    249.53721   -406.68249    -406.4567   -34.882496 
   34300     235.0219   -406.62019   -406.40754    24.491336 
   34400    284.65107    -406.7206   -406.46304    7.5100784 
   34500    310.59176   -406.69447   -406.41344   -33.694612 
   34600    99.714527   -406.54496   -406.45474     30.87905 
   34700    312.82129   -406.73931   -406.45627   -21.275252 
   34800    178.44193   -406.68085   -406.51939   -2.5063474 
   34900    173.31242   -406.68943   -406.53261    15.240358 
   35000    242.08357   -406.63555   -406.41651   -5.8185359 
   35100    280.72252   -406.63729   -406.38329   -11.089001 
   35200    448.99675   -406.66673   -406.26047    36.957846 
   35300    474.55104   -406.68558    -406.2562   -43.066079 
   35400    462.74851   -406.75744   -406.33873    27.501188 
   35500    223.59121   -406.54145   -406.33914   -16.832278 
   35600    316.54872   -406.68225   -406.39583     25.62209 
   35700    328.16251   -406.65974   -406.36281   -36.177126 
   35800    188.34985   -406.60104   -406.43062    29.176462 
   35900    290.23905    -406.6835   -406.42088   0.12464911 
   36000    277.82536   -406.63035   -406.37897   -13.613372 
   36100     285.6802   -406.56499    -406.3065    16.548726 
   36200    265.06901   -406.51765   -406.27781    35.717069 
   36300    326.71503   -406.61761   -406.32199   -50.643605 
   36400    186.82668   -406.51345   -406.34441    37.028399 
   36500    300.56485   -406.59957   -406.32761   -12.854441 
   36600    274.31294   -406.64269   -406.39449    16.967662 
   36700    458.23509   -406.78776   -406.37313   -33.182185 
   36800    304.11377   -406.70383   -406.42866    26.850564 
   36900    276.15659   -406.74887   -406.49899   -7.3837487 
   37000    220.87423   -406.76011   -406.56026   -18.190453 
   37100    221.92648   -406.73793   -406.53712    13.763925 
   37200    351.97991   -406.76149   -406.44301   -1.9520214 
   37300    454.62663   -406.67912   -406.26776     -25.0999 
   37400    493.43298   -406.66805   -406.22159    18.849157 
   37500    401.26851   -406.51995   -406.15687    3.6603691 
   37600    514.16702    -406.6806   -406.21537    -25.30437 
   37700    246.33267   -406.48383   -406.26094      10.8538 
   37800    160.55349    -406.4978   -406.35253    3.2073917 
   37900    412.00655   -406.73126   -406.35847    8.9204895 
   38000    176.18876   -406.56283   -406.40341   -30.689763 
   38100    187.69676   -406.59561   -406.42578    56.270423 
   38200    253.90948    -406.6373   -406.40756   -35.830593 
   38300    337.42119   -406.66464   -406.35934   -3.6852961 
   38400    294.03403   -406.59216   -406.32611    18.300131 
   38500    415.00473   -406.61361   -406.23811    15.221553 
   38600    459.20066   -406.63603   -406.22054   -48.013679 
   38700    512.04102   -406.57229   -406.10899    49.919665 
   38800    292.38133   -406.56683   -406.30228   -18.888212 
   38900    302.72422   -406.64308   -406.36917    8.0286302 
   39000     219.8708   -406.67984    -406.4809   -6.2335913 
   39100     213.8707   -406.64299   -406.44948    3.0678438 
   39200    195.18033   -406.62358   -406.44698    12.544756 
   39300    362.87142   -406.71963    -406.3913     -13.8709 
   39400    304.31038   -406.65087   -406.37552   -14.344746 
   39500    384.99463    -406.6993   -406.35094    44.990498 
   39600    356.70842   -406.65525   -406.33249   -45.418984 
   39700    351.80305   -406.69928   -406.38096    12.492257 
   39800    363.69991   -406.71107   -406.38199    33.104028 
   39900     160.6069   -406.56459   -406.41927     -56.4974 
   40000    194.24901   -406.60901   -406.43325    49.294255 
   40100    283.47875   -406.71511   -406.45861   -8.6921552 
   40200    271.91576   -406.73987   -406.49383   -35.887458 
   40300    218.79948   -406.67255   -406.47457    41.178896 
   40400    300.49298   -406.73942   -406.46753   -11.911365 
   40500    261.60618   -406.64601    -406.4093   -41.744908 
   40600    291.45548   -406.60088   -406.33717    70.280242 
   40700    117.57185    -406.3416   -406.23521   -55.900172 
   40800    480.34223   -406.60328   -406.16865    38.844445 
   40900    567.06351   -406.69221   -406.17911   -14.945322 
   41000    178.50853   -406.40274   -406.24122   -26.599418 
   41100    330.31271   -406.64285   -406.34398    48.439022 
   41200    211.12297   -406.58177   -406.39075   -30.012299 
   41300    369.13168   -406.75311   -406.41911   -12.027589 
   41400    306.35803   -406.66433   -406.38713    54.079634 
   41500    181.27468   -406.57068   -406.40666     -77.5723 
   41600    447.93361   -406.78242   -406.37712    71.862856 
   41700    236.16804   -406.56657   -406.35288   -36.172964 
   41800    257.46216   -406.55221   -406.31925    20.600975 
   41900    472.98891   -406.72926   -406.30129    23.570835 
   42000    157.51088   -406.35286   -406.21035   -46.927889 
   42100    387.10182   -406.59306    -406.2428    38.442239 
   42200    469.84904   -406.73125   -406.30612    24.383275 
   42300    208.27524   -406.52858   -406.34013   -81.864573 
   42400    184.16823    -406.5902   -406.42357    81.377212 
   42500    313.01543   -406.74113   -406.45791   -34.834376 
   42600     341.0419   -406.66246   -406.35387   -24.334315 
   42700    196.32809   -406.57511   -406.39746    48.136231 
   42800    182.63227   -406.57403   -406.40878    -26.20193 
   42900    329.50723   -406.68521   -406.38706    1.8373202 
   43000    469.23433   -406.79195   -406.36738    8.8974449 
   43100    181.19083   -406.41288   -406.24893   -35.351864 
   43200    580.06102   -406.76698   -406.24213     63.83628 
   43300    231.76809   -406.41978   -406.21007   -71.387478 
   43400    490.27317   -406.69445   -406.25084    17.565578 
   43500    321.32311   -406.62761   -406.33687     56.44448 
   43600    134.73843   -406.51533   -406.39341   -66.500651 
   43700    336.85374   -406.77279     -406.468    32.778488 
   43800    372.49155   -406.78555   -406.44851     18.12469 
   43900    203.28873   -406.63672   -406.45278   -55.626233 
   44000    357.83134   -406.73976   -406.41599    47.344136 
   44100    330.02999   -406.65823   -406.35961   -8.2840734 
   44200    284.07169    -406.5372   -406.28016   -47.859719 
   44300    640.28155   -406.66063   -406.08129    58.355577 
   44400    764.31782   -406.56233   -405.87076   -35.180725 
   44500    365.02203   -406.25142   -405.92114    1.1799586 
   44600    334.56732    -406.4696   -406.16687    10.310485 
   44700    416.65814   -406.63207   -406.25507     12.32939 
   44800    178.09619   -406.44747   -406.28633   -29.072245 
   44900    309.90182   -406.58178   -406.30137    39.613065 
   45000    233.56804    -406.5682   -406.35686   -26.889478 
   45100    302.33441   -406.74734   -406.47378    13.642455 
   45200     333.3141   -406.69016   -406.38857   0.14970664 
   45300    206.34043   -406.62698   -406.44028   -4.6404338 
   45400    215.10037   -406.66636   -406.47173    3.1378934 
   45500    315.39134   -406.68904   -406.40367    17.222543 
   45600    352.45796   -406.62285   -406.30393   -39.439401 
   45700    481.30538   -406.48951   -406.05401    31.792489 
   45800    504.71814   -406.61147   -406.15479    7.8951052 
   45900    357.65985   -406.44777   -406.12415   -49.666063 
   46000    316.51973    -406.5664   -406.28001    44.717372 
   46100    338.30147   -406.55617   -406.25007   -8.2705866 
   46200    223.38988   -406.47707   -406.27495   -17.944079 
   46300    410.18369   -406.68272   -406.31158    40.106209 
   46400    148.14053   -406.49669   -406.36265   -40.263847 
   46500    338.76824   -406.70802    -406.4015    10.715474 
   46600    292.28784   -406.68559   -406.42112    29.153158 
   46700    261.71406   -406.66068   -406.42388   -60.181675 
   46800    244.19643   -406.66718   -406.44622    59.815839 
   46900    356.53196   -406.78031   -406.45771   -16.349607 
   47000    197.53799    -406.6989   -406.52017   -20.066059 
   47100    188.38066   -406.72505    -406.5546    41.371316 
   47200    126.43506   -406.70959   -406.59519   -17.624527 
   47300    254.27446   -406.76671   -406.53664   -9.1149424 
   47400    168.17481   -406.63117   -406.47901     34.02932 
   47500    266.83189   -406.60577   -406.36433   -53.651776 
   47600    321.60727   -406.61022   -406.31922    48.703415 
   47700    448.30056   -406.66004    -406.2544   -24.599678 
   47800    320.07713   -406.54955   -406.25994   -16.977055 
   47900    457.89777     -406.698   -406.28369    40.177412 
   48000    253.95641    -406.5408   -406.31101   -40.162434 
   48100    449.82779   -406.79085   -406.38383    5.7992547 
   48200     223.6288   -406.63235      -406.43    26.508114 
   48300    207.76849   -406.74055   -406.55256   -42.337219 
   48400    165.25151   -406.66221   -406.51268    32.568418 
   48500    287.14973   -406.77904   -406.51922   -11.924445 
   48600    134.20066   -406.61068   -406.48926   -11.994433 
   48700    313.27313   -406.69297   -406.40951    34.204369 
   48800    344.31905   -406.50395    -406.1924   -31.907145 
   48900    418.43082   -406.58787   -406.20926    2.8722433 
   49000    427.12892   -406.49825   -406.11177    37.312505 
   49100    357.73925   -406.52602   -406.20233   -39.035615 
   49200    395.37528   -406.68362   -406.32588    13.934552 
   49300    265.36987   -406.64146   -406.40135   0.45814204 
   49400      212.611   -406.60946   -406.41708   -7.6977247 
   49500    262.64539   -406.65207   -406.41442    5.8895941 
   49600    335.52785   -406.73514   -406.43155   -8.7486602 
   49700    308.92831   -406.68432   -406.40479    3.7280205 
   49800    461.04364   -406.72569   -406.30853    4.4752957 
   49900    265.99264   -406.37903   -406.13835   -24.803539 
   50000    403.36352   -406.32785   -405.96288    42.989626 
   50100    253.25923   -406.28874   -406.05959   -20.556687 
   50200    579.73584   -406.66079   -406.13623   -20.205917 
   50300    355.36963    -406.5811   -406.25955    35.242394 
   50400    505.28446   -406.70212   -406.24493   -35.658051 
   50500    400.86669   -406.67652   -406.31381     0.902669 
   50600    344.17701    -406.6868   -406.37538    14.468182 
   50700    178.19273   -406.64984    -406.4886   -19.602325 
   50800    123.66276   -406.63166   -406.51976    17.166817 
   50900    278.70956   -406.73283   -406.48065    5.8411832 
   51000    143.19714   -406.50545   -406.37588   -23.698932 
   51100    343.49743   -406.66402   -406.35321    43.236914 
   51200      359.929   -406.48149   -406.15582     -40.5269 
   51300    538.60141   -406.65973   -406.17239    7.8517552 
   51400    470.63806   -406.56851   -406.14267    2.9970058 
   51500    199.04703   -406.37438   -406.19428   -14.898269 
   51600    514.51113   -406.70525   -406.23971    24.589532 
   51700    371.02502   -406.67641    -406.3407   -9.2576061 
   51800    376.32161   -406.67061   -406.33011   -19.273104 
   51900    258.15483   -406.60817   -406.37458    36.564353 
   52000    287.50211   -406.66997   -406.40984   -35.510369 
   52100    320.75448   -406.65965   -406.36943    15.946921 
   52200    294.55477   -406.72928   -406.46276    3.1977624 
   52300    387.86344   -406.71838   -406.36744   -23.618005 
   52400    293.55124   -406.70425   -406.43864    23.802233 
   52500    198.53748   -406.69393   -406.51429   -12.582983 
   52600    238.50978   -406.79926   -406.58345     4.359788 
   52700    290.93481    -406.7887   -406.52546    3.4729624 
   52800    101.38222    -406.6243   -406.53257   -5.2899738 
   52900     159.7908   -406.65829   -406.51371     15.58413 
   53000    241.29055   -406.61738   -406.39905   -8.5491592 
   53100    308.43898   -406.61145   -406.33236   -11.771063 
   53200    169.12756   -406.36985   -406.21682    59.188728 
   53300    414.33025    -406.6432    -406.2683   -62.917959 
   53400    251.81338   -406.53236   -406.30451    40.279121 
   53500    368.20993   -406.69296   -406.35979   -11.140592 
   53600    283.32076   -406.66233   -406.40597   -1.3556468 
   53700    284.82263   -406.71549   -406.45778   -8.6088411 
   53800    226.73743   -406.71783   -406.51268      8.07018 
   53900    159.42942   -406.61875   -406.47449    2.3955682 
   54000    272.73344   -406.73456   -406.48779   -6.1349568 
   54100    155.05581   -406.58864   -406.44834    -3.343958 
   54200    299.29996   -406.74043   -406.46962    15.493927 
   54300    339.09875    -406.6655   -406.35868   -12.969117 
   54400    438.27282   -406.78358   -406.38703    2.8524042 
   54500    320.00359   -406.56767   -406.27812    12.357459 
   54600    438.80513   -406.61714    -406.2201   -30.269486 
   54700    287.55469   -406.56069    -406.3005    41.614552 
   54800    291.31303   -406.67929   -406.41571   -37.673976 
   54900    211.74808   -406.69029   -406.49869    17.125232 
   55000    299.47804   -406.76817   -406.49719    5.7572474 
   55100    237.60907   -406.63689    -406.4219   -27.024149 
   55200    306.69326   -406.72547   -406.44797    19.673147 
   55300    267.73698   -406.61529   -406.37304    11.046896 
   55400    305.58112   -406.67535   -406.39886   -31.834438 
   55500    360.20079   -406.66319   -406.33727    41.882131 
   55600    384.31497   -406.58998   -406.24224   -33.094595 
   55700    598.59061   -406.62043   -406.07881    37.820236 
   55800    521.01304    -406.6991   -406.22767   -34.553936 
   55900     345.9783   -406.65314   -406.34009  -0.50950428 
   56000    236.86386   -406.68284   -406.46852    27.545726 
   56100    209.99577   -406.67718   -406.48717   -15.821769 
   56200    316.00416   -406.72049   -406.43456   -6.9545496 
   56300    262.42919   -406.69635   -406.45889    24.540709 
   56400     244.3787   -406.73441   -406.51329   -30.116844 
   56500    264.47408    -406.6559    -406.4166    27.669681 
   56600    281.81659    -406.5807    -406.3257   -30.727691 
   56700    332.61499   -406.57067   -406.26972    4.1022234 
   56800    595.66948   -406.71214   -406.17316    42.410785 
   56900    334.97921   -406.55266   -406.24956   -60.856165 
   57000    379.86533   -406.66078   -406.31707    22.775756 
   57100    306.40139   -406.63138   -406.35414    33.086184 
   57200    186.97433   -406.53724   -406.36806   -56.249524 
   57300    331.65182   -406.77585   -406.47576    36.541275 
   57400     231.6682   -406.59663   -406.38701    5.6755759 
   57500    335.95077   -406.70862   -406.40464   -47.912559 
   57600    293.03135    -406.6573   -406.39216    64.378734 
   57700    233.09291   -406.58113   -406.37022    -48.43925 
   57800     368.9413   -406.70492   -406.37109    23.175669 
   57900    281.52728   -406.57551   -406.32078    7.8731602 
   58000    352.20401   -406.61527   -406.29659   -19.525368 
   58100    270.33989   -406.57933   -406.33472    21.596799 
   58200    277.23915    -406.7381   -406.48725   -9.6432293 
   58300    205.77861   -406.71397   -406.52777   -6.3047809 
   58400    285.79561   -406.76088   -406.50228    25.927014 
   58500    255.55555   -406.72808   -406.49684   -38.979307 
   58600    324.20306   -406.80082   -406.50748    46.101309 
   58700    343.73701   -406.80362    -406.4926   -32.739889 
   58800    415.30634   -406.68987   -406.31409  -0.71777749 
   58900    443.79544   -406.71203   -406.31047    38.606613 
   59000    340.92046   -406.57511   -406.26664   -42.437717 
   59100     564.0449   -406.79533   -406.28497    11.209478 
   59200    170.42672    -406.6307    -406.4765    32.847278 
   59300    254.35966   -406.74975    -406.5196      -45.051 
   59400    252.36662   -406.74151   -406.51316    35.675529 
   59500    365.86214   -406.78849   -406.45745    -13.56848 
   59600    291.82023   -406.72847   -406.46443   -10.219725 
   59700    341.46334   -406.74711   -406.43815    12.214163 
   59800    233.77457   -406.57724   -406.36571   -11.486719 
   59900    424.70037   -406.78901   -406.40474   -2.7311026 
   60000    212.93115   -406.59149   -406.39883    11.366485 
   60100    273.13524    -406.7086   -406.46146   -25.283952 
   60200    193.85369   -406.63887   -406.46347    32.699344 
   60300    254.76331   -406.68129   -406.45078   -23.248907 
   60400    235.00942   -406.59656   -406.38392    3.8846086 
   60500    374.13089   -406.70472    -406.3662    8.3263246 
   60600    201.42318   -406.39063   -406.20838   0.92730407 
   60700    554.76629   -406.70692   -406.20495   -6.8879699 
   60800    427.54272   -406.68825    -406.3014   -5.4529901 
   60900    305.39079   -406.66003    -406.3837    6.0608902 
   61000    180.35898   -406.61613   -406.45293    10.588041 
   61100    304.34009   -406.71882   -406.44345   -18.067217 
   61200    213.06278   -406.60966   -406.41688   -5.8059313 
   61300    214.21538   -406.57058   -406.37676    47.223933 
   61400    378.64371   -406.69307   -406.35047   -49.149625 
   61500    352.76175   -406.59534   -406.27616    15.071761 
   61600    264.56184   -406.47117   -406.23179    6.8973455 
   61700    377.97825   -406.45735   -406.11535    1.1300301 
   61800     645.5122   -406.53481   -405.95074   -23.884438 
   61900    436.88772   -406.41031     -406.015     6.104059 
   62000     265.7411   -406.45709   -406.21664    16.455586 
   62100    464.39886   -406.73514   -406.31494    1.5784601 
   62200    280.92011   -406.63406   -406.37988    -34.46356 
   62300     310.6493   -406.66588    -406.3848    33.330307 
   62400    207.65175   -406.61467   -406.42679   -12.724261 
   62500    430.57784   -406.83024   -406.44064   -15.876239 
   62600    259.25464   -406.60819   -406.37361    19.978397 
   62700    305.88047   -406.69627    -406.4195   -23.790234 
   62800    384.89717   -406.69497   -406.34671    25.781546 
   62900    250.70257   -406.58981   -406.36297   -22.317658 
   63000    329.51837   -406.68572   -406.38757    4.3463578 
   63100    151.92512    -406.5311   -406.39363    20.274083 
   63200    271.14921   -406.68023   -406.43489   -19.281596 
   63300    191.60053   -406.63299   -406.45962     9.512454 
   63400    314.17503   -406.72143   -406.43716     11.10156 
   63500    133.96063   -406.61787   -406.49666   -31.050593 
   63600    215.09336   -406.68056   -406.48594    43.346954 
   63700    231.92602    -406.6724   -406.46255   -47.939815 
   63800     389.3214   -406.77974   -406.42747    25.261575 
   63900    336.46413   -406.60435   -406.29991     11.94226 
   64000    493.88448   -406.64587     -406.199   -22.075854 
   64100    467.42372   -406.72376   -406.30083     31.53294 
   64200    391.06765   -406.75172   -406.39788   -10.603539 
   64300    203.01802   -406.62256   -406.43886   -17.070856 
   64400    401.42883   -406.80619   -406.44297    29.436587 
   64500    233.87777   -406.69785   -406.48623   -31.402237 
   64600    232.45562   -406.64101   -406.43068    10.361639 
   64700    390.94181   -406.78606   -406.43233    19.475634 
   64800    154.08607   -406.53895   -406.39953   -42.649952 
   64900    470.01307   -406.73352   -406.30825    41.583684 
   65000    226.28302   -406.41601   -406.21127    -23.31828 
   65100    703.41498   -406.67271   -406.03625    5.8263617 
   65200    356.18598    -406.2678   -405.94551  -0.44404202 
   65300    331.82457   -406.29609   -405.99585   -1.9994653 
   65400    564.78194   -406.72781   -406.21678    6.9091027 
   65500    272.48736   -406.57129   -406.32474   -5.2733758 
   65600    383.00044   -406.68258   -406.33603   -21.692777 
   65700    156.06049   -406.52896   -406.38776    34.368211 
   65800    298.58218   -406.65902   -406.38886   -31.497859 
   65900    452.68092   -406.80148   -406.39188    14.139938 
   66000    199.37488   -406.55188   -406.37148   -17.992184 
   66100    335.83616    -406.6297   -406.32583    20.747211 
   66200    328.64759   -406.59503   -406.29766    -4.614486 
   66300    383.60147   -406.56411   -406.21702   -40.593065 
   66400    148.92931   -406.29742   -406.16266     55.44261 
   66500     371.9361   -406.43542   -406.09888   -33.510916 
   66600    454.10704   -406.54843   -406.13755    17.273144 
   66700    266.41766   -406.44296    -406.2019   -6.1635714 
   66800    233.51727   -406.53023   -406.31894    11.038318 
   66900    218.07977   -406.64076   -406.44344   -1.4210146 
   67000    323.57702   -406.73118   -406.43841   0.47801058 
   67100    188.22137   -406.57648   -406.40617   -7.4772923 
   67200    243.24921   -406.61873   -406.39863    21.946642 
   67300     232.6598     -406.522   -406.31149   -19.873201 
   67400     481.9466   -406.71248   -406.27641     2.991058 
   67500    498.19607   -406.59151   -406.14073    21.559298 
   67600    504.46231   -406.46141   -406.00496   -20.853636 
   67700    605.19114   -406.52577   -405.97818   -10.061919 
   67800    507.24039   -406.64029   -406.18133    33.761552 
   67900    258.04115   -406.61332   -406.37984   -23.683252 
   68000    291.88806   -406.66897   -406.40486    15.111149 
   68100    262.37382   -406.67444   -406.43704   0.74546391 
   68200    265.44037   -406.68584   -406.44567   -23.207789 
   68300     230.2852   -406.67739   -406.46903    35.883946 
   68400    191.39502   -406.61523   -406.44205   -22.737863 
   68500    280.09248   -406.63745   -406.38402    5.5401033 
   68600    395.39992   -406.66531   -406.30755    22.262875 
   68700    543.11045   -406.69178   -406.20036   -17.852959 
   68800    329.14551    -406.6761   -406.37829    6.3589345 
   68900    192.32927   -406.64381   -406.46978    21.586834 
   69000    149.46732   -406.65141   -406.51616   -26.417783 
   69100    328.85031   -406.76804   -406.47049    22.366408 
   69200     255.0232   -406.72295    -406.4922   -21.831223 
   69300     247.8455   -406.67098   -406.44672    13.350958 
   69400    225.54666   -406.60414   -406.40006    12.990102 
   69500    358.77313   -406.67237   -406.34774    -22.33515 
   69600    393.02964   -406.68214   -406.32652   -13.416271 
   69700    370.92179   -406.53847   -406.20285    28.699286 
   69800    394.21354   -406.47459    -406.1179    9.2424254 
   69900    649.06229   -406.62423   -406.03695   -11.943211 
   70000    471.11688   -406.57701   -406.15074   -19.377364 
   70100    244.80097   -406.51855   -406.29705    23.399482 
   70200    297.38418   -406.62092   -406.35184  -0.55888657 
   70300    220.10534   -406.63551   -406.43636   -24.402431 
   70400    316.38147   -406.69573   -406.40946    36.808752 
   70500    243.91009   -406.59347   -406.37277    -33.26295 
   70600     412.4127   -406.78563   -406.41247     18.67406 
   70700    249.14024   -406.54354   -406.31812   -4.7059719 
   70800    308.21325   -406.54872   -406.26984   -9.4850119 
   70900    327.43198   -406.54962   -406.25335    11.091067 
   71000    534.88694   -406.65921   -406.17524   -7.3993961 
   71100    395.14324   -406.51251   -406.15497    -9.979845 
   71200    429.87105   -406.62927   -406.24031    25.874462 
   71300    235.72264   -406.50987   -406.29658    -18.78801 
   71400    369.47394   -406.72463   -406.39032    4.7718008 
   71500    202.09058   -406.63067   -406.44781    1.3736361 
   71600    352.57371   -406.72737   -406.40836   0.66319509 
   71700    292.68597   -406.67125   -406.40642   -8.8499674 
   71800    398.01296   -406.78921   -406.42908    19.318287 
   71900    172.11314    -406.5915   -406.43577   -31.848025 
   72000    316.85281   -406.64191   -406.35522    41.684913 
   72100    423.90132   -406.60465   -406.22109   -23.928578 
   72200    606.54393   -406.63905   -406.09024   -22.632428 
   72300     491.8449   -406.59378   -406.14875    41.806293 
   72400    292.97767   -406.50512   -406.24003   -26.009588 
   72500    320.14893   -406.61603   -406.32635    3.2625317 
   72600    200.15322   -406.56547   -406.38436   0.95210079 
   72700    275.62757   -406.62966   -406.38027    5.8935208 
   72800    279.65175   -406.63576   -406.38272   -13.090158 
   72900    317.17189   -406.62819   -406.34121    7.1280465 
   73000    416.01819   -406.68359   -406.30717    10.477743 
   73100    318.36702   -406.70453   -406.41646   -4.5056176 
   73200      222.821   -406.63332   -406.43171   -15.010953 
   73300    184.40455   -406.66064   -406.49379    34.300188 
   73400    202.32368   -406.75306   -406.56999   -36.235136 
   73500    159.01543   -406.69312   -406.54924    22.926893 
   73600    302.88807   -406.73302   -406.45896   -6.2272953 
   73700    314.06411    -406.5795   -406.29532   -11.728724 
   73800    529.41675   -406.66908   -406.19005    11.535282 
   73900     274.3664   -406.38587   -406.13762   -15.775113 
   74000    410.16968   -406.52732   -406.15619    29.339358 
   74100    447.27214   -406.61486   -406.21016   -25.799678 
   74200    310.18828   -406.58445   -406.30379    3.1758198 
   74300    284.72854   -406.59952   -406.34189     28.31047 
   74400    160.66279   -406.51319   -406.36781   -29.410227 
   74500    511.78276   -406.79876   -406.33569    16.656445 
   74600    295.60541   -406.66292   -406.39545   -1.2383561 
   74700    243.13879   -406.61334   -406.39334   -14.666144 
   74800    401.05349   -406.74775   -406.38487    21.338847 
   74900     234.0342   -406.59638   -406.38462   -26.119655 
   75000     326.8874   -406.72957   -406.43379    14.796608 
   75100    195.69352   -406.68628   -406.50922   -7.8886574 
   75200    279.46776   -406.79141   -406.53854   -6.7900903 
   75300    127.50429   -406.63019   -406.51482     11.94256 
   75400    287.12607   -406.74684   -406.48705   -3.9960568 
   75500    295.34131   -406.69477   -406.42754   -9.1787857 
   75600    246.84908   -406.54731   -406.32395    22.913693 
   75700    448.45094   -406.67068   -406.26491   -34.095576 
   75800    559.86582   -406.72692   -406.22034    12.091334 
   75900    389.37039    -406.5934   -406.24109   -11.578403 
   76000    418.64824   -406.68671   -406.30791    3.2842131 
   76100    269.74536   -406.57771   -406.33364    3.6991943 
   76200    271.96145   -406.69085   -406.44477   -11.851974 
   76300    196.98828   -406.62645   -406.44821    11.175051 
   76400     386.9137   -406.74082   -406.39073     2.016589 
   76500    320.99752   -406.70855    -406.4181   -22.578309 
   76600    123.96517   -406.50725   -406.39509    34.300652 
   76700    489.52837    -406.8011   -406.35816   -3.5697202 
   76800    320.55519   -406.63546   -406.34542   -47.641105 
   76900    396.55163    -406.6381    -406.2793    56.176126 
   77000    176.87047   -406.43345   -406.27342   -24.056115 
   77100    515.58322    -406.7647   -406.29819    6.3305824 
   77200    272.73284   -406.62191   -406.37514   -2.1278584 
   77300    205.75104   -406.70298   -406.51682    6.6526775 
   77400    163.28015   -406.68826   -406.54052    5.8546176 
   77500    266.97664      -406.79   -406.54843   -1.3435855 
   77600    181.19242   -406.69339   -406.52944    -20.70142 
   77700    257.59607   -406.63038    -406.3973    38.151188 
   77800    301.12771   -406.61159   -406.33913   -29.095743 
   77900    252.03436   -406.49538   -406.26733    6.2056028 
   78000     452.3395   -406.67495   -406.26566    9.4845574 
   78100    329.47779   -406.55453   -406.25641   -13.461836 
   78200    386.88623   -406.67533   -406.32527   -2.2969337 
   78300    297.10034   -406.62263   -406.35381    16.458068 
   78400    407.40271   -406.78735   -406.41873   -21.491953 
   78500    302.93888   -406.73531   -406.46121     11.66732 
   78600    153.80089   -406.64147   -406.50231   -7.4571329 
   78700    216.92748   -406.65053   -406.45425   -1.3720315 
   78800     312.2066   -406.70286   -406.42037    14.266833 
   78900    435.21185   -406.59834   -406.20455   -23.362853 
   79000    440.72219   -406.47514   -406.07636    21.606859 
   79100    458.37878   -406.52117   -406.10642   -7.1640493 
   79200       233.92   -406.40224   -406.19058    7.8905333 
   79300    504.46358   -406.71246   -406.25601   -4.1932776 
   79400    195.53994   -406.57564   -406.39871   -9.8473901 
   79500    291.82421   -406.68681   -406.42277    12.381035 
   79600    176.25459   -406.65758    -406.4981   0.76952409 
   79700    223.92357   -406.64397   -406.44136   -8.2929786 
   79800    274.56572   -406.68516   -406.43673    14.040653 
   79900     295.3122   -406.63363   -406.36643   -18.424972 
   80000     398.4739   -406.67675    -406.3162    22.494793 
   80100    508.97789   -406.61837   -406.15783   -22.665504 
   80200    304.44936   -406.33829   -406.06281   -3.4251102 
   80300    531.19899   -406.59013   -406.10949    16.765996 
   80400    343.64945    -406.5133   -406.20236   -6.3324931 
   80500    397.68551   -406.70546   -406.34562   -5.4075364 
   80600    211.77963   -406.55133    -406.3597    16.211701 
   80700    381.58145    -406.7661   -406.42083   -21.967433 
   80800    201.69607   -406.57871   -406.39621    20.881235 
   80900    368.89994   -406.72056   -406.38678   -9.1371231 
   81000    220.04439   -406.54702   -406.34792   -21.874155 
   81100    417.57029   -406.71895   -406.34112     44.38805 
   81200    201.71814   -406.49094   -406.30842   -41.679485 
   81300    641.03464   -406.77351   -406.19348   -5.6043675 
   81400    270.74091   -406.33217   -406.08719     35.74371 
   81500    429.32061     -406.494   -406.10554   -29.439704 
   81600    404.71049   -406.54339    -406.1772    18.186749 
   81700    327.22694    -406.6424   -406.34631   0.11655516 
   81800    194.75746   -406.58385   -406.40763   -9.5897383 
   81900    270.83041   -406.68285   -406.43779    35.420325 
   82000    347.30187   -406.76112   -406.44687   -41.226576 
   82100     257.4836   -406.73519   -406.50222     26.56411 
   82200    337.26713   -406.77827    -406.4731     9.233308 
   82300    237.04854   -406.64566   -406.43118   -41.775534 
   82400    269.22231   -406.64971   -406.40611    37.754849 
   82500    326.56584   -406.53163   -406.23615   -8.6862052 
   82600    548.58735   -406.62741   -406.13104   -29.498321 
   82700    456.18147   -406.55801   -406.14525    26.142995 
   82800    401.87212   -406.62086   -406.25723   -12.403625 
   82900     316.5401   -406.64559   -406.35918    2.8206541 
   83000    236.55587   -406.61339   -406.39935    1.4467543 
   83100    210.53286   -406.58736   -406.39687   -4.5858239 
   83200    257.95884   -406.64541   -406.41201    1.3672904 
   83300    324.37029   -406.70128   -406.40778    3.9733347 
   83400    258.06947   -406.62008   -406.38658   -6.0348924 
   83500    377.75289   -406.72881   -406.38701    3.0522605 
   83600    168.14958   -406.48557   -406.33342    1.9449628 
   83700     528.6641   -406.77789   -406.29954    11.544933 
   83800    243.67233   -406.46066   -406.24018   -20.112462 
   83900    286.21126   -406.49751   -406.23854     28.31616 
   84000    377.18217   -406.59032   -406.24904    3.1272216 
   84100    339.44202   -406.62236   -406.31522   -7.9587805 
   84200    427.58557   -406.75729    -406.3704   -7.3202321 
   84300    183.08075   -406.59093   -406.42528  -0.03643209 
   84400    276.15719   -406.71529   -406.46542      15.0848 
   84500    270.94489   -406.70708   -406.46192   -20.035101 
   84600    307.90881   -406.73179   -406.45319    6.3618424 
   84700    296.13142   -406.65606   -406.38812    2.4225471 
   84800    221.57198   -406.51292   -406.31244   -4.0378745 
   84900      654.242   -406.73863   -406.14666    1.2935898 
   85000    259.83316   -406.17122   -405.93612   -15.572349 
   85100    717.15977   -406.57763   -405.92873    19.999888 
   85200    346.88362   -406.37223   -406.05836   -3.1966381 
   85300    419.18439   -406.65152   -406.27223   -21.632279 
   85400    244.41987   -406.51459   -406.29343    34.302488 
   85500    255.89914   -406.56469   -406.33315   -11.830367 
   85600    339.21687   -406.68558   -406.37865   -7.9666857 
   85700    192.26807   -406.58355   -406.40959     21.53658 
   85800    233.85935   -406.67957   -406.46797   -13.904246 
   85900    198.97224     -406.616   -406.43596    10.534835 
   86000    334.57362   -406.68111   -406.37838   -2.2012133 
   86100    241.07708   -406.60146   -406.38333   -13.498579 
   86200    375.61909   -406.60162   -406.26175    26.234119 
   86300    291.07121   -406.54678   -406.28341   -27.719793 
   86400    515.95399   -406.64675    -406.1799    3.4291191 
   86500    315.43471    -406.4755   -406.19009    16.803059 
   86600    461.95316   -406.65816   -406.24017   -17.888021 
   86700     142.7635   -406.57795   -406.44877    9.1299646 
   86800    323.32971   -406.75042   -406.45787    13.685631 
   86900     175.7101   -406.65493   -406.49595   -24.316869 
   87000    327.15258   -406.74996   -406.45394    22.287476 
   87100    145.91724   -406.49621   -406.36418   -9.9045003 
   87200    432.37824   -406.77114   -406.37992   0.69723552 
   87300    240.35915   -406.45656   -406.23908   -11.578975 
   87400    313.21946   -406.39956   -406.11615    24.949452 
   87500    525.73078   -406.52252   -406.04683   -6.3940503 
   87600    401.77079    -406.4013   -406.03777   -25.962557 
   87700    495.20274   -406.60073   -406.15266    18.449167 
   87800    238.83617    -406.5594   -406.34329  -0.36569731 
   87900    352.23136   -406.73785   -406.41914   -3.2470457 
   88000    343.02788   -406.69885   -406.38847    -7.454742 
   88100    283.90011   -406.69188   -406.43501   -4.6452664 
   88200    355.53605   -406.73217   -406.41047    23.553531 
   88300     343.0962   -406.71954    -406.4091   -38.624058 
   88400    233.22545   -406.60838   -406.39735    20.441962 
   88500    391.52101   -406.71558   -406.36132    4.6906771 
   88600    261.28836   -406.52049   -406.28407    -23.00792 
   88700    463.85986   -406.65989   -406.24018    26.441254 
   88800    410.18352   -406.57226   -406.20112   -14.372084 
   88900    357.00029    -406.5361   -406.21308   -1.9348784 
   89000    264.00135   -406.61156   -406.37269      16.7962 
   89100    219.32789   -406.58192   -406.38347   -2.1921235 
   89200    294.45838    -406.7269   -406.46047   -9.2464219 
   89300    243.44139   -406.71719   -406.49692    24.955093 
   89400     137.7628   -406.57235    -406.4477   -17.727564 
   89500    316.84395   -406.79899   -406.51231    10.038558 
   89600     289.4126   -406.67408   -406.41221   -7.4266771 
   89700    213.69182   -406.52039   -406.32704    8.7603804 
   89800    531.24468   -406.60766   -406.12697    5.7211171 
   89900    455.01756   -406.51533   -406.10362   -27.994203 
   90000    457.82533   -406.55186   -406.13761    23.903501 
   90100    477.20282   -406.62216   -406.19037    1.5754054 
   90200    267.64945    -406.5577   -406.31553   -33.527687 
   90300    280.58573    -406.5972   -406.34332    46.610326 
   90400    235.47859   -406.57248   -406.35941   -35.416844 
   90500    289.46073   -406.66974   -406.40783    13.976997 
   90600    321.26883   -406.72897   -406.43828    4.1505327 
   90700     175.4877   -406.57633   -406.41755    -21.06704 
   90800    311.37103   -406.71198   -406.43024    30.510538 
   90900    318.67234   -406.67389   -406.38555   -13.693566 
   91000    384.23781   -406.56677   -406.21911   -22.196272 
   91100    327.88763    -406.4513   -406.15462    42.731705 
   91200    407.47241   -406.45968   -406.09099   -14.549884 
   91300    403.76041   -406.49257   -406.12724   -27.112976 
   91400     278.6396   -406.48211   -406.22999    16.431091 
   91500    319.56029   -406.61519   -406.32604    31.050142 
   91600    279.29058   -406.68889   -406.43618   -48.118753 
   91700    254.08036   -406.63329   -406.40339    21.247377 
   91800    336.99131    -406.6939   -406.38899    10.094194 
   91900    254.98333   -406.59367   -406.36296   -19.285004 
   92000    420.92179   -406.75912   -406.37826    2.9262173 
   92100     196.6388   -406.45598   -406.27806   -6.3178864 
   92200    391.86897   -406.61163   -406.25706    31.949554 
   92300    438.31249   -406.60851   -406.21192   -27.101298 
   92400     537.9864   -406.70222   -406.21544   -10.803119 
   92500    259.65527   -406.58146   -406.34652     33.92886 
   92600    253.33232     -406.617   -406.38778   -18.942751 
   92700    379.71804   -406.74141   -406.39783   -8.8752443 
   92800    182.05202   -406.57407   -406.40935    20.972785 
   92900    291.54674   -406.66522   -406.40143   -26.501198 
   93000    335.96734   -406.69864   -406.39465     32.88868 
   93100    233.70811   -406.49935   -406.28788   -41.428277 
   93200    353.77693   -406.49973   -406.17963    34.756101 
   93300     536.7714    -406.5234   -406.03771      11.9913 
   93400    419.27986   -406.47802   -406.09864   -49.363036 
   93500    302.41075    -406.4342   -406.16057    30.069433 
   93600    378.57434   -406.72515    -406.3826    18.076946 
   93700    124.72171   -406.54975    -406.4369   -48.205368 
   93800    273.40838   -406.69854   -406.45115    38.460123 
   93900    228.53547   -406.64939   -406.44261   0.47705082 
   94000     269.6715   -406.66786   -406.42386   -39.513443 
   94100    237.71505   -406.61797   -406.40288    45.489539 
   94200    347.32099   -406.65286    -406.3386   -20.066506 
   94300    375.87231   -406.63083   -406.29073   -25.217838 
   94400    462.00242   -406.63273    -406.2147    48.687246 
   94500    276.75795   -406.41754   -406.16712   -45.831618 
   94600    540.20084   -406.68847   -406.19968    5.4645239 
   94700    352.74397   -406.62602   -406.30685      28.4735 
   94800    224.00864   -406.65638   -406.45369   -43.271087 
   94900    246.67347   -406.72891   -406.50572    39.009622 
   95000    126.97888   -406.65712   -406.54222   -13.697257 
   95100    220.91888    -406.6923   -406.49241  -0.78909743 
   95200    264.39901   -406.68025   -406.44101    15.528462 
   95300    149.85198   -406.53216   -406.39657   -2.3993871 
   95400    417.77481   -406.68722   -406.30921    13.713414 
   95500    380.40097   -406.57289    -406.2287   -8.7704675 
   95600    429.82537   -406.63612    -406.2472    -25.99503 
   95700    383.27234   -406.52895   -406.18215    54.362913 
   95800    367.50964   -406.54642   -406.21389   -49.099041 
   95900    474.97542   -406.72628   -406.29651    1.2441066 
   96000    260.91098   -406.62185   -406.38577     19.67145 
   96100     241.5523   -406.65384   -406.43528   -21.888884 
   96200    280.61477   -406.69301    -406.4391    5.6709601 
   96300    207.15329   -406.60304    -406.4156     13.32304 
   96400    288.86901   -406.58145   -406.32008   -15.624572 
   96500    454.75936   -406.68151   -406.27003    14.947368 
   96600    356.45648   -406.50828   -406.18576   -25.650917 
   96700    376.36455   -406.49726   -406.15672    47.881549 
   96800    400.97168    -406.6386   -406.27579   -35.747304 
   96900    295.92625   -406.68322   -406.41546   -2.1333843 
   97000    209.93671    -406.7109   -406.52095    27.241468 
   97100    160.59711   -406.59244   -406.44713   -26.141434 
   97200    350.59622   -406.76833    -406.4511    12.734598 
   97300    290.32071   -406.62344   -406.36075    12.746693 
   97400    338.06395   -406.60975   -406.30386   -36.898422 
   97500    375.88518   -406.64393   -406.30382    41.363836 
   97600    563.94169   -406.70728   -406.19701   -9.1703056 
   97700    457.45376    -406.5626   -406.14869   -16.139638 
   97800    511.55701   -406.74197    -406.2791    24.966098 
   97900    183.25129   -406.50829   -406.34248   -19.776606 
   98000    337.30189   -406.74434   -406.43914    7.8951307 
   98100     221.8418   -406.67847   -406.47774   -2.6142322 
   98200     228.6047   -406.64179   -406.43495   -10.367298 
   98300    170.62458    -406.5967   -406.44232    15.579955 
   98400    308.16901   -406.66805   -406.38921   -13.121312 
   98500    276.71595   -406.53606   -406.28568  -0.14020471 
   98600    605.00577   -406.73103   -406.18361    22.876005 
   98700    364.94291   -406.53338   -406.20317   -36.341555 
   98800     395.0609   -406.60295   -406.24549    39.624622 
   98900    292.71475   -406.66352   -406.39866   -34.801419 
   99000    226.67617   -406.58401   -406.37891    17.175657 
   99100    384.85978   -406.70614   -406.35792   -8.9998875 
   99200     234.1479   -406.55242   -406.34056   -17.737198 
   99300    312.52196    -406.6721   -406.38932    23.629722 
   99400    233.27546   -406.62199   -406.41092   -10.419162 
   99500    254.29915   -406.59043   -406.36033   -10.641482 
   99600    267.77099   -406.57828     -406.336    34.969519 
   99700    247.80775   -406.60609   -406.38187   -23.363262 
   99800    328.56495   -406.74608   -406.44879    8.7573495 
   99900    251.18735   -406.67355   -406.44627    15.198382 
  100000    160.84562   -406.61461   -406.46907   -21.460834 
  100100    323.39203   -406.75244   -406.45983    18.876759 
  100200    196.19242    -406.6732   -406.49568   -21.048881 
  100300    378.04023   -406.72076    -406.3787    18.444766 
  100400    329.03831   -406.58499   -406.28727   -21.412621 
  100500    275.98332   -406.49806   -406.24834    3.9790236 
  100600    428.48371   -406.62834   -406.24064  -0.75852638 
  100700    484.39595   -406.65727   -406.21898    26.676071 
  100800    354.90769   -406.66868   -406.34755   -31.075593 
  100900    212.11072   -406.64084   -406.44892    12.561223 
  101000    293.84381   -406.72702   -406.46115    9.7412583 
  101100    235.12405   -406.69289   -406.48015   -17.565238 
  101200     304.5869   -406.73149    -406.4559   0.58934611 
  101300    294.44194   -406.67484   -406.40843    14.478017 
  101400    372.17795    -406.6794   -406.34265   -27.710099 
  101500    489.39741   -406.72878   -406.28596   -9.0552935 
  101600    398.46311    -406.7298   -406.36926    10.507421 
  101700    350.92717   -406.76816   -406.45063   -12.259894 
  101800    272.72415   -406.79179   -406.54502     7.059775 
  101900    194.64813   -406.72032   -406.54419   -13.016564 
  102000    216.00412   -406.72471   -406.52926    17.416141 
  102100    248.87921   -406.69191   -406.46672   -2.9996328 
  102200    330.86587   -406.71191   -406.41254   -12.025762 
  102300    319.74374   -406.66269   -406.37338    16.829492 
  102400    439.30392   -406.69443   -406.29694    6.3276569 
  102500    368.39782   -406.64866   -406.31533   -24.355017 
  102600    312.50014   -406.67848   -406.39573    27.067288 
  102700    134.80614   -406.54352   -406.42154   -28.964744 
  102800    370.30962   -406.76394   -406.42887    36.868025 
  102900    132.25083   -406.49645   -406.37679   -39.833072 
  103000    327.48539   -406.72429   -406.42797    22.582973 
  103100    291.68132   -406.65881   -406.39489  -0.25139238 
  103200    316.36476   -406.67126   -406.38501   -25.033117 
  103300    221.49939   -406.67098   -406.47056    23.152783 
  103400    310.45201   -406.79026   -406.50936   -3.0670986 
  103500    156.36776   -406.65097   -406.50948   -13.903795 
  103600    226.06228    -406.7748   -406.57026    22.379051 
  103700    152.53826   -406.70899   -406.57097    -21.03266 
  103800    189.69896   -406.68272   -406.51108     9.194489 
  103900    342.15741   -406.75324   -406.44364    7.9486113 
  104000    458.82941   -406.74844   -406.33329   -30.255936 
  104100    474.83046   -406.77139   -406.34176    37.709773 
  104200    417.39072   -406.69732   -406.31965   -23.971653 
  104300    330.32787   -406.72918   -406.43029   -5.9499269 
  104400    222.22711   -406.70538    -406.5043    13.061402 
  104500    246.64137   -406.73315   -406.50999   -13.300798 
  104600    269.23873   -406.72488   -406.48126    14.590694 
  104700    280.86279   -406.67495   -406.42082   -18.949401 
  104800     273.5965   -406.62658   -406.37902    13.452635 
  104900     400.1615   -406.62785   -406.26578    13.542566 
  105000    325.27255   -406.42377   -406.12946   -50.313635 
  105100    245.20826   -406.31721   -406.09534    74.602821 
  105200    508.84682   -406.63457   -406.17415   -28.848598 
  105300    327.79441    -406.4706     -406.174   -27.780495 
  105400    298.90292   -406.51673   -406.24628    58.783702 
  105500    333.07606       -406.6   -406.29862   -27.791598 
  105600    358.88576   -406.67604   -406.35132   -14.943214 
  105700    248.23118    -406.6622    -406.4376     35.37077 
  105800    144.36019   -406.57238   -406.44176   -21.895511 
  105900    389.18604   -406.83393   -406.48178    8.1001334 
  106000    178.23795   -406.61046   -406.44918   -3.0803759 
  106100    279.56518   -406.66489   -406.41194  -0.31778829 
  106200    463.13007   -406.73936   -406.32031    8.6385716 
  106300    287.23889   -406.41851   -406.15861   -24.720149 
  106400    488.37854   -406.51552   -406.07363    36.219694 
  106500    428.93637    -406.4949   -406.10679   -41.202278 
  106600    542.11535    -406.6182   -406.12768    2.4861056 
  106700     287.2204   -406.56546   -406.30558    29.497158 
  106800    323.54649   -406.62547   -406.33272   -32.364024 
  106900    313.34196   -406.62327   -406.33975    10.715836 
  107000    294.87335   -406.67763   -406.41082    6.4937015 
  107100    272.60938   -406.69936    -406.4527   -23.234175 
  107200     209.2198    -406.7201   -406.53079    25.762764 
  107300    115.23381   -406.63536    -406.5311   -17.556996 
  107400    283.31409    -406.7771   -406.52076    20.337093 
  107500    336.76975   -406.79572     -406.491   -15.197174 
  107600    292.69309   -406.73694   -406.47211   -1.7547605 
  107700    580.61075   -406.81782   -406.29247    35.863902 
  107800    405.22083    -406.5783   -406.21165    -50.24147 
  107900     523.2392   -406.74756   -406.27413    17.257804 
  108000    313.36039   -406.68669   -406.40316    18.390415 
  108100    216.74047   -406.62878   -406.43266   -32.566211 
  108200    210.73755   -406.65705   -406.46637    33.013606 
  108300    267.23308   -406.68732   -406.44552   -26.658069 
  108400    200.27795   -406.56314   -406.38193    14.263184 
  108500    470.55822    -406.7694   -406.34363    13.801558 
  108600    203.48087   -406.49759   -406.31347   -52.439666 
  108700     326.3638   -406.54225   -406.24695    50.182307 
  108800    532.63178   -406.73512   -406.25319   -2.9161512 
  108900    390.08721   -406.61228   -406.25932   -48.916978 
  109000    232.74142   -406.56735   -406.35676    49.975814 
  109100     225.2185   -406.67074   -406.46696   -23.013395 
  109200    264.09257   -406.71359   -406.47463    12.508637 
  109300    183.71726   -406.66419   -406.49795   -12.758352 
  109400    127.23006   -406.57967   -406.46455    16.292189 
  109500    380.18479   -406.72809   -406.38409   -1.5435892 
  109600    196.79459   -406.47077   -406.29271   -25.278376 
  109700    535.43952   -406.69708    -406.2126    34.871494 
  109800    423.94643   -406.52531   -406.14172   -6.5567678 
  109900    368.22665   -406.52433   -406.19115    -40.64995 
  110000    326.49436   -406.49051   -406.19509    44.974637 
  110100    392.47503   -406.61275   -406.25763   -13.417909 
  110200    368.36472    -406.5987   -406.26539   -6.6238234 
  110300    341.07796   -406.60153   -406.29291   -4.6374211 
  110400    201.67081   -406.53524   -406.35276    18.533015 
  110500    338.06114   -406.66537   -406.35949   -10.615201 
  110600    312.76201   -406.67687   -406.39388   -10.325898 
  110700    288.01098   -406.67361   -406.41301    12.811708 
  110800    261.27979   -406.70615   -406.46974   -7.4220506 
  110900    195.06148   -406.70891   -406.53241   -10.785776 
  111000    167.19859   -406.71043   -406.55914    17.614567 
  111100    195.94513   -406.74304   -406.56575   -13.846014 
  111200     214.0914    -406.7476   -406.55389   0.63216139 
  111300    239.02955   -406.66599   -406.44971    11.316269 
  111400    245.50066   -406.60269   -406.38056   -14.015581 
  111500    363.59792   -406.64583   -406.31684     19.67035 
  111600    348.24557   -406.63158   -406.31648   -25.319272 
  111700    275.65328   -406.54448   -406.29506    7.0278282 
  111800    371.79967   -406.66176   -406.32535    24.421901 
  111900    142.83846   -406.48415   -406.35491   -42.121736 
  112000    487.47077   -406.81722   -406.37614    22.846281 
  112100    330.89682   -406.72095   -406.42154    6.7793369 
  112200    85.634205    -406.5554   -406.47791   -27.616626 
  112300    207.01593    -406.7031   -406.51579    34.584259 
  112400    225.73839   -406.70008   -406.49583   -20.390236 
  112500    257.17531   -406.73952   -406.50683   -4.8332697 
  112600     116.7392   -406.56408   -406.45845    24.874687 
  112700    332.67043    -406.6814   -406.38039    -18.28335 
  112800    526.48827   -406.74558   -406.26921   -14.719383 
  112900    316.83664   -406.49853   -406.21184    41.064476 
  113000    352.52248   -406.55771   -406.23874   -29.428478 
  113100    356.75282   -406.65168   -406.32888   -1.2432948 
  113200    238.44991   -406.62613   -406.41037    17.359519 
  113300    208.98741   -406.62481   -406.43572   -6.3785454 
  113400    271.93361    -406.6603   -406.41425   -17.265673 
  113500    282.09816   -406.66874   -406.41349    46.300682 
  113600    272.84366   -406.62308    -406.3762   -45.893492 
  113700    347.78217   -406.70099   -406.38631    27.160974 
  113800    291.81864   -406.65231   -406.38827   -8.4190733 
  113900    252.29189   -406.56039   -406.33211   -1.7371789 
  114000    452.28606   -406.73855   -406.32931   -6.0306556 
  114100    366.43897   -406.65995   -406.32838    5.6309518 
  114200    286.92033   -406.62128   -406.36167    -6.375469 
  114300    240.78818   -406.61272   -406.39485    8.2872282 
  114400    300.70761   -406.69147   -406.41938   -7.8670172 
  114500    324.44795   -406.72349   -406.42992    6.3951012 
  114600    239.77528   -406.68376    -406.4668   -10.786583 
  114700    229.52313   -406.67088    -406.4632    14.024165 
  114800    132.65483   -406.54598   -406.42595   -5.0087915 
  114900    457.61135   -406.81263   -406.39857   -15.385192 
  115000    342.54747   -406.58014    -406.2702    20.492398 
  115100    484.70009   -406.59113   -406.15256    -26.44218 
  115200    355.09674   -406.48657   -406.16527    14.697215 
  115300    449.81795   -406.69328   -406.28627   -8.2023234 
  115400    235.17974   -406.59531   -406.38251    -4.022352 
  115500    256.26269   -406.64027    -406.4084    10.134842 
  115600     198.5474   -406.58497   -406.40532    2.1479331 
  115700    268.65017   -406.65041   -406.40733   -12.455504 
  115800    399.38847   -406.75652   -406.39514    28.217873 
  115900    259.89345   -406.65956   -406.42441   -24.422696 
  116000    404.19586   -406.79062    -406.4249    24.104838 
  116100    242.54794   -406.67385   -406.45439    -10.62079 
  116200     224.8144   -406.70963   -406.50621   -6.6925631 
  116300    127.58488   -406.67594    -406.5605    17.639268 
  116400    214.19926   -406.77708   -406.58327   -18.742319 
  116500    205.83567   -406.75682   -406.57058    3.5714581 
  116600    139.85147   -406.58436   -406.45782    13.183146 
  116700    419.56394   -406.74259   -406.36296   -13.349358 
  116800    421.38219   -406.64408   -406.26281    1.5751014 
  116900    353.58423   -406.57807   -406.25814   -0.3670305 
  117000    281.42108   -406.55603    -406.3014    12.756172 
  117100    459.76696   -406.73137   -406.31537   -12.211576 
  117200    194.17164   -406.55536   -406.37967   -19.636565 
  117300    268.82808   -406.68715   -406.44391    35.439818 
  117400     198.8409   -406.63446   -406.45454   -29.896177 
  117500    224.50742   -406.66654    -406.4634    13.499791 
  117600    176.88033   -406.59629   -406.43625    10.894505 
  117700    379.29063   -406.67678   -406.33359   -3.5788737 
  117800    549.01192   -406.67087   -406.17412    4.7330903 
  117900    354.41266   -406.43948    -406.1188    1.1910704 
  118000    364.70017   -406.56931   -406.23932   -8.0281046 
  118100    298.98329   -406.62502   -406.35449  -0.20344196 
  118200    369.29235   -406.75784   -406.42369    -16.68313 
  118300    164.14785   -406.57906   -406.43054    30.818714 
  118400    357.53598   -406.75607   -406.43257   -33.630785 
  118500    174.33466   -406.54271   -406.38497    18.329026 
  118600    339.70792   -406.66274   -406.35537    7.1765828 
  118700    241.89346   -406.52537    -406.3065   -12.146963 
  118800    579.56193   -406.71209   -406.18769    -6.980969 
  118900    253.36438   -406.27238   -406.04313    15.484804 
  119000    611.49557   -406.61915   -406.06585   -7.4263772 
  119100    294.21521   -406.47057   -406.20435    6.9668158 
  119200    398.16294   -406.70545   -406.34518   -21.287792 
  119300    223.36723   -406.62288   -406.42077    23.823268 
  119400    322.04238   -406.68996   -406.39857   -7.1030495 
  119500    228.76811   -406.61769    -406.4107   -4.7525956 
  119600    323.99048   -406.69211   -406.39896     18.74711 
  119700    285.08004   -406.62628   -406.36833   -11.332646 
  119800    505.17418   -406.81508   -406.35799     4.560445 
  119900     325.1824   -406.58125   -406.28702   -15.730153 
  120000    225.60018   -406.44781   -406.24369    18.134076 
  120100    444.50876   -406.54956   -406.14736     9.471626 
  120200     312.7075    -406.4231   -406.14016   -32.561583 
  120300    475.30592   -406.63929   -406.20922    14.501051 
  120400    180.58726   -406.45637   -406.29297    18.163561 
  120500    362.93584   -406.72167   -406.39327   -34.035756 
  120600    200.84324   -406.62008   -406.43835    32.755689 
  120700    248.64653   -406.68224   -406.45726   -23.699301 
  120800    234.13672   -406.63792   -406.42606    23.974479 
  120900    249.13525   -406.63429   -406.40887    -21.94363 
  121000    280.66338    -406.5956   -406.34165    15.820182 
  121100    437.25258   -406.65254    -406.2569    3.5891981 
  121200    368.04759   -406.41938   -406.08637   -37.477628 
  121300    391.05044   -406.36779   -406.01396    50.327567 
  121400    619.36611   -406.64687   -406.08645   -39.524047 
  121500    194.93511    -406.4565   -406.28012   -5.1582347 
  121600    428.97576   -406.75219   -406.36405    32.689604 
  121700    137.97128   -406.48155   -406.35671   -49.544009 
  121800    392.14597   -406.78068   -406.42586    36.687899 
  121900    239.34224   -406.59872   -406.38215  -0.95694175 
  122000    367.23145   -406.73902   -406.40674   -35.825884 
  122100    149.46524   -406.54098   -406.40574    53.881819 
  122200    348.70657   -406.68403   -406.36852    -36.14887 
  122300    330.69367   -406.67449   -406.37527    5.4391777 
  122400    418.08301   -406.69938   -406.32109    23.846185 
  122500    224.67711   -406.44688   -406.24359   -44.648693 
  122600    350.29829   -406.50959   -406.19263    42.080346 
  122700    546.77207    -406.6525   -406.15777   -28.099752 
  122800    263.18713   -406.44245   -406.20431   -9.3817674 
  122900    416.26526   -406.64714    -406.2705    46.125435 
  123000    96.987647   -406.47685   -406.38909   -36.234386 
  123100    329.19389   -406.75944   -406.46157    20.906457 
  123200    260.68414   -406.71049   -406.47461    7.3825919 
  123300    178.04158   -406.61762   -406.45653   -27.934382 
  123400    205.47192   -406.57174   -406.38583    38.317564 
  123500    321.18948   -406.58231   -406.29169   -34.249506 
  123600    497.74253   -406.72203   -406.27167    1.5605151 
  123700    350.77932    -406.5002    -406.1828    21.098321 
  123800    368.04082   -406.52601     -406.193   -44.741211 
  123900     319.6913   -406.47791   -406.18865    49.760337 
  124000    314.98309   -406.64972   -406.36471   -29.609788 
  124100    208.95953    -406.6438   -406.45473    8.8178376 
  124200    204.54736   -406.67385   -406.48877    18.569277 
  124300    91.136729   -406.55496    -406.4725   -24.703523 
  124400    337.86129   -406.78913   -406.48343    28.626866 
  124500    273.90742   -406.60734    -406.3595   -6.9049027 
  124600    472.22548   -406.70251   -406.27523    -19.52099 
  124700    453.23773   -406.64462   -406.23452    47.439906 
  124800    314.29387   -406.50875   -406.22437   -50.889987 
  124900    416.59314   -406.67673   -406.29979    24.147552 
  125000    301.86509   -406.63214   -406.35901   -10.566783 
  125100    250.01627   -406.65469   -406.42847   -10.158328 
  125200    263.83977   -406.70431   -406.46558     11.98494 
  125300    220.36628    -406.6493   -406.44991   -18.073276 
  125400    234.75594   -406.64715   -406.43474    20.618868 
  125500    393.02083   -406.75963   -406.40402   -18.607041 
  125600    224.80138   -406.57186   -406.36845   -6.7124704 
[...]
  474700    424.93259   -406.73669    -406.3522    11.001309 
  474800    115.43389   -406.41162   -406.30717   -9.1601434 
  474900    234.62747   -406.62838   -406.41608    29.438419 
  475000    210.16328   -406.54854   -406.35838  -0.42509234 
  475100    289.73323   -406.73528   -406.47313    -6.587636 
  475200    167.62827   -406.70764   -406.55596    12.341634 
  475300    209.85019    -406.7997   -406.60982   -15.989454 
  475400    147.53001   -406.73684   -406.60335    8.6208094 
  475500    197.73649    -406.7829   -406.60398   -10.037971 
  475600    178.87354   -406.66755    -406.5057    1.5625735 
  475700     329.4878   -406.71071   -406.41258   -2.0771711 
  475800    180.96803   -406.46216   -406.29842   -9.2033263 
  475900    385.17741   -406.63791    -406.2894    25.307026 
  476000     204.1243   -406.49357   -406.30888    -30.62962 
  476100    370.32293   -406.60883   -406.27375    21.400402 
  476200    310.36765   -406.50559   -406.22476   -4.0961844 
  476300    348.52168   -406.55385    -406.2385   -23.235509 
  476400    320.18375   -406.62893   -406.33922     23.24144 
  476500    278.90736   -406.58472   -406.33236   -27.087367 
  476600    325.42262   -406.67693   -406.38248    4.0615403 
  476700    283.17907   -406.68926   -406.43304   0.60093142 
  476800    245.53419   -406.73328   -406.51112   -18.801973 
  476900    252.10946   -406.70932   -406.48121    29.593713 
  477000    183.70286   -406.61241   -406.44619   -24.811914 
  477100    265.58453   -406.66018   -406.41987    29.025428 
  477200    297.81052   -406.52111   -406.25164    7.8256324 
  477300    333.01349    -406.5169   -406.21558   -15.562318 
  477400    325.73482   -406.49412   -406.19939    25.105855 
  477500    336.96272   -406.56307   -406.25818  0.026656428 
  477600    296.76658   -406.55564   -406.28712   -6.1370361 
  477700    389.48076   -406.67402   -406.32161   -7.4396269 
  477800     196.0818   -406.54372    -406.3663   0.86231607 
  477900    391.31718   -406.80128   -406.44721    2.0168141 
  478000    243.45501   -406.65813   -406.43785   -29.178923 
  478100    329.50174   -406.73532   -406.43718    17.329377 
  478200    242.47453   -406.54199   -406.32259   -2.2644225 
  478300    475.54581   -406.57154   -406.14126   -21.885903 
  478400    526.50817   -406.52295   -406.04656    28.927255 
  478500    385.89686   -406.34052   -405.99135    -8.372754 
  478600    412.60721    -406.4661   -406.09276     16.47751 
  478700    346.19647   -406.62065    -406.3074   -4.6667024 
  478800    248.44224   -406.54579   -406.32099  -0.35779218 
  478900    240.91172    -406.6321   -406.41412    13.827517 
  479000    243.74821   -406.70793   -406.48738   -16.018991 
  479100    298.69785   -406.70762   -406.43735    1.2255711 
  479200    228.90816   -406.64366   -406.43654    7.5044036 
  479300    350.26973   -406.77706   -406.46013   -23.994463 
  479400    248.43847   -406.58245   -406.35765    18.379349 
  479500    395.26771   -406.65538   -406.29773   -13.581675 
  479600    519.76227   -406.66744   -406.19715    3.9467677 
  479700    493.76122    -406.6089   -406.16213    7.3898477 
  479800    254.16281   -406.42835   -406.19838   -2.0834554 
  479900    291.67791   -406.59911   -406.33519    33.063373 
  480000    322.78852   -406.63909   -406.34703   -26.570113 
  480100    309.81641    -406.6924   -406.41207    14.408552 
  480200     110.4723   -406.42637   -406.32642    13.978921 
  480300    339.33491    -406.6802   -406.37316    -2.398114 
  480400    273.58889   -406.62108   -406.37353   -15.036555 
  480500    305.38799   -406.63588   -406.35956    20.835697 
  480600    233.53078   -406.52949   -406.31819   -9.1252869 
  480700     418.5293   -406.71212   -406.33343    0.7833094 
  480800    290.12167   -406.57937   -406.31686   -25.922002 
  480900    281.31454   -406.55107   -406.29653    38.720838 
  481000    301.07612   -406.59333   -406.32091   -16.331371 
  481100    302.13562   -406.64768    -406.3743   -12.486831 
  481200    195.08105     -406.565   -406.38849    24.990022 
  481300     216.9366   -406.65808   -406.46179   -6.4471929 
  481400    274.45385   -406.74854   -406.50021   -14.003639 
  481500     247.1154   -406.73674   -406.51314    14.947151 
  481600    199.49956   -406.69763   -406.51712    -19.09264 
  481700     325.4149   -406.72438   -406.42994    7.6653712 
  481800    371.95151    -406.6853   -406.34875   -6.6052453 
  481900    366.71174    -406.5406   -406.20879   -19.023012 
  482000    413.57404   -406.58827   -406.21405    31.350603 
  482100    380.83109   -406.58098    -406.2364   -32.836826 
  482200    381.41004   -406.60788   -406.26277    26.602481 
  482300    346.89236    -406.6751   -406.36122   -7.3466449 
  482400    200.03424    -406.5841    -406.4031     3.272983 
  482500    204.88672   -406.66561   -406.48022    16.851521 
  482600    179.77738   -406.61694   -406.45427   -2.7367644 
  482700    269.77313   -406.71019    -406.4661     3.751262 
  482800    250.99641   -406.64267   -406.41557    18.217109 
  482900    264.19898   -406.66512   -406.42607   -31.471114 
  483000    215.31284    -406.5192   -406.32438    42.112328 
  483100    303.33006    -406.5951   -406.32064   -35.829454 
  483200    342.02218   -406.65207    -406.3426    8.4185984 
  483300    325.66906    -406.5348   -406.24013    10.750061 
  483400    363.51275   -406.51374   -406.18482   -30.475307 
  483500    415.39271   -406.52599   -406.15014    17.053646 
  483600     479.3787   -406.59115    -406.1574    8.6960042 
  483700    401.16677   -406.44193   -406.07895   -32.174933 
  483800    386.16063   -406.47503   -406.12563    24.461816 
  483900      373.706   -406.64169   -406.30355    4.8009133 
  484000    273.76987   -406.66334   -406.41563   -32.109685 
  484100    239.56464   -406.66977     -406.453    38.800024 
  484200    231.97808    -406.6643    -406.4544   -33.645008 
  484300    205.89375   -406.61063   -406.42434    22.866772 
  484400    345.87727   -406.69807   -406.38511   -22.803452 
  484500    234.85881   -406.52653   -406.31403  -0.31351896 
  484600    519.63585   -406.68219   -406.21201    15.967066 
  484700    446.32546   -406.51272   -406.10888   -35.381626 
  484800     513.2813   -406.49639   -406.03196    8.8273414 
  484900    462.91264    -406.5106   -406.09175    17.130862 
  485000    230.43943   -406.45028   -406.24177   -21.994233 
  485100     375.8343    -406.6196   -406.27954    28.130428 
  485200    142.75501   -406.42169   -406.29252    -10.37707 
  485300    331.01438   -406.64548   -406.34597 -0.053568472 
  485400    211.34995   -406.57715   -406.38591    37.203002 
  485500    132.53954    -406.4705   -406.35057   -36.352425 
  485600    308.64266   -406.60623   -406.32697    48.558517 
  485700    253.79582   -406.59141   -406.36177   -27.328213 
  485800    434.64108   -406.69927   -406.30599   -2.7642864 
  485900    193.42788   -406.44955   -406.27454    18.964649 
  486000       344.74   -406.58047   -406.26855   -14.792015 
  486100    290.73534   -406.54957   -406.28651     9.204648 
  486200    487.47098   -406.64839   -406.20732   -1.1608652 
  486300    255.16184   -406.45117   -406.22029   -24.828236 
  486400    307.49205   -406.63709   -406.35887    48.101085 
  486500    291.96039   -406.66061   -406.39643   -38.347396 
  486600    247.17225   -406.62223   -406.39858    6.6784071 
  486700    265.77478   -406.66436   -406.42388    20.986559 
  486800    264.76524   -406.72819   -406.48863   -44.742085 
  486900    209.76746   -406.58967   -406.39987    39.943578 
  487000    387.79411   -406.66859   -406.31771   -28.229132 
  487100    441.33369   -406.59652   -406.19719   -10.304858 
  487200    562.49294   -406.66776    -406.1588    1.6960385 
  487300    221.97402   -406.35197   -406.15112  -0.45152596 
  487400    480.63237   -406.70146   -406.26657    12.209675 
  487500    307.38528   -406.56459   -406.28646   -21.179807 
  487600    273.18093   -406.63429   -406.38711    3.2804184 
  487700     232.5718   -406.59992   -406.38948    41.469611 
  487800    232.04752   -406.56868   -406.35872   -49.042637 
  487900    251.12309   -406.57394   -406.34672    41.689369 
  488000    214.09879   -406.55541   -406.36169   -6.7693575 
  488100    282.20366   -406.54753   -406.29219    1.7526958 
  488200    571.95236    -406.6174   -406.09989   -2.2934342 
  488300    417.80636   -406.37219   -405.99415   -16.221769 
  488400     373.1628   -406.41753   -406.07988    37.476941 
  488500    536.72667   -406.68387   -406.19823   -19.076433 
  488600    324.86764    -406.5637   -406.26975   -22.364109 
  488700    345.13678   -406.64938   -406.33709    27.771257 
  488800    198.03727   -406.56278    -406.3836   -7.3606363 
  488900     411.3683   -406.77382    -406.4016   -15.498605 
  489000    199.87844   -406.61227   -406.43141    15.329734 
  489100    270.07764   -406.67164   -406.42727   -13.559654 
  489200    278.95751   -406.67774   -406.42534    21.028451 
  489300    372.12813   -406.74242   -406.40571   -36.103221 
  489400    195.73955   -406.52344   -406.34633    27.124315 
  489500    474.52914   -406.70124   -406.27188     3.208419 
  489600    392.33177   -406.55076   -406.19577   -37.774887 
  489700    410.49881   -406.54008   -406.16866    12.721074 
  489800    469.88395   -406.64053   -406.21537    20.057124 
  489900    206.54571   -406.50816   -406.32127   -35.086457 
  490000     420.4771   -406.81038   -406.42993    21.393344 
  490100    160.76332   -406.61393   -406.46847   -14.866038 
  490200    241.67401   -406.69828    -406.4796    13.562858 
  490300    285.54154   -406.72581   -406.46744   0.79589902 
  490400    248.21983   -406.65842   -406.43383   -13.891037 
  490500    165.65388   -406.53367   -406.38379    31.743957 
  490600    393.73969   -406.69842   -406.34215   -7.3266932 
  490700    284.39271   -406.53472    -406.2774   -14.365707 
  490800    386.01673   -406.55337    -406.2041    25.441923 
  490900    283.65499   -406.32756   -406.07091    12.492577 
  491000     564.2698   -406.38847    -405.8779   -10.413275 
  491100     858.1459   -406.64717    -405.8707   -1.8797258 
  491200    262.31622   -406.26287   -406.02552   -1.5000685 
  491300    441.24022   -406.61139   -406.21214    36.952473 
  491400    318.86301   -406.61139   -406.32287   -36.613632 
  491500    349.71669   -406.68942   -406.37298    6.6856283 
  491600    288.14029   -406.67149   -406.41077    12.015662 
  491700    257.91711   -406.61949   -406.38612   -19.909063 
  491800      360.173   -406.78298   -406.45709   -4.5552311 
  491900    192.56746    -406.5951   -406.42086    17.043691 
  492000    329.34555   -406.74379   -406.44579    -21.93654 
  492100    327.16922   -406.64496   -406.34893    10.857562 
  492200    305.19654   -406.52349   -406.24734   -13.662132 
  492300    367.26867   -406.50063   -406.16832    25.430977 
  492400    567.63609   -406.63661     -406.123   -18.012683 
  492500    410.01396   -406.49972   -406.12873    -27.32331 
  492600    324.78013   -406.55352   -406.25966    38.914563 
  492700    303.30727   -406.65238   -406.37794   -30.017556 
  492800    354.55128   -406.66782   -406.34701   -4.9247225 
  492900    275.93509   -406.59015   -406.34048    14.920445 
  493000    157.70765   -406.53957   -406.39687   -9.9811458 
  493100    369.69941   -406.69262   -406.35811    3.6910939 
  493200     238.7723   -406.58688   -406.37084    13.330115 
  493300    296.70711   -406.54662   -406.27815   -21.172565 
  493400    265.82969   -406.46629   -406.22576    43.105271 
  493500    382.47467   -406.58048    -406.2344   -28.513285 
  493600    478.10566   -406.52383   -406.09123    1.1603672 
  493700    278.06631   -406.33314   -406.08154    26.012145 
  493800    516.39302   -406.68166   -406.21442   -13.991825 
  493900    287.43898   -406.53016   -406.27008   -2.7766918 
  494000     363.3241   -406.70749   -406.37874    2.6052509 
  494100    153.08245   -406.61955   -406.48104    -4.187089 
  494200    348.97945   -406.72046   -406.40469    2.2427009 
  494300    285.86663   -406.69433   -406.43567    -12.26356 
  494400    274.11572    -406.6213   -406.37327    4.0361146 
  494500     388.0067   -406.60638    -406.2553    6.8128117 
  494600    329.90887   -406.52852   -406.23001   -18.095822 
  494700    524.18303   -406.57567   -406.10138    25.304591 
  494800    383.76201   -406.35549   -406.00825   -1.6437654 
  494900     464.5191   -406.65123   -406.23092   -2.6205586 
  495000    267.34911   -406.59805   -406.35614  -0.86779052 
  495100     211.3276   -406.64836   -406.45715    7.2837837 
  495200    273.94872   -406.70993   -406.46205   -9.2225577 
  495300    201.30225   -406.63765    -406.4555    1.4244628 
  495400    261.46742   -406.61373   -406.37715    7.8519537 
  495500    310.40769    -406.6661   -406.38523   -11.937404 
  495600    413.29826   -406.58635   -406.21239     -16.8669 
  495700    288.39619     -406.433   -406.17205    34.329298 
  495800    512.40353   -406.73835   -406.27471   -18.891804 
  495900    351.76511    -406.6176   -406.29932   -17.176379 
  496000    193.97308   -406.65286   -406.47734    37.667243 
  496100    260.90891   -406.69234   -406.45627   -22.218551 
  496200     255.4476   -406.76255   -406.53142   -2.6156659 
  496300    259.97986   -406.70031   -406.46508     12.56923 
  496400    336.43315   -406.79901    -406.4946   -7.9543035 
  496500     361.4167   -406.76384   -406.43682   -13.369896 
  496600    207.70556   -406.53676   -406.34882    19.404195 
  496700    332.23246   -406.69193   -406.39132   -12.707481 
  496800    284.67648   -406.54009   -406.28251    11.974659 
  496900    376.66053   -406.64049   -406.29968    -8.929919 
  497000     248.0728   -406.49536    -406.2709    10.906443 
  497100    419.76203   -406.52569   -406.14588   -3.3111351 
  497200    385.16878   -406.48433   -406.13583    13.312458 
  497300    464.15487   -406.69928    -406.2793   -24.070749 
  497400    274.38206   -406.55625   -406.30799    17.359469 
  497500    267.73989   -406.64562   -406.40337   -8.9330845 
  497600    366.47208   -406.79208   -406.46049    9.0396228 
  497700    231.29203   -406.66277   -406.45349   -26.445247 
  497800    204.06168   -406.63567   -406.45104    28.520298 
  497900    329.42811   -406.65621   -406.35814   -22.403185 
  498000     222.7476   -406.45919   -406.25764    3.9698407 
  498100    393.40335    -406.5564   -406.20044    31.249569 
  498200    384.52731   -406.49561   -406.14768   -34.388707 
  498300    410.19435   -406.56396   -406.19281    23.332937 
  498400    310.58975   -406.52797   -406.24694    8.8840047 
  498500    271.58582   -406.49683    -406.2511   -21.560375 
  498600    306.24211    -406.6131     -406.336    12.719101 
  498700    288.84672   -406.65382   -406.39246    4.6102892 
  498800    149.21314    -406.4863   -406.35129   -18.579911 
  498900    247.46561   -406.57988   -406.35597     20.80815 
  499000    314.67385    -406.6326   -406.34788   -6.6963732 
  499100    273.38342    -406.4991   -406.25174   -7.5601962 
  499200    284.49976   -406.32007   -406.06264    15.706881 
  499300    433.89702   -406.37328   -405.98068    16.508078 
  499400    528.00946   -406.59106   -406.11331   -30.805848 
  499500    438.57151   -406.59035   -406.19352    6.0931756 
  499600    269.85555   -406.52674   -406.28257   -1.4948747 
  499700    415.60731   -406.76192   -406.38587     4.250578 
  499800    350.10071   -406.64987    -406.3331   -26.967825 
  499900    357.18379   -406.67718   -406.35399    24.156218 
  500000    248.37784   -406.65802   -406.43328   -8.1801948 
  500100    297.83277   -406.64638    -406.3769   -4.7141261 
  500200    160.35229   -406.51244   -406.36735    13.831599 
  500300    323.17948   -406.65521   -406.36279    14.270458 
  500400    341.09799    -406.6364   -406.32777   -22.263916 
  500500    351.96258   -406.50259   -406.18412    13.043167 
  500600    399.71798   -406.54132   -406.17964    10.847952 
  500700    425.41645   -406.65111   -406.26619   -21.444157 
  500800    372.70329    -406.7565   -406.41927  -0.86284267 
  500900    207.51891   -406.60685   -406.41908    6.4994834 
  501000    200.91054   -406.67945   -406.49766   -0.9011695 
  501100     195.1888   -406.61652   -406.43991    -5.645395 
  501200    241.03067   -406.68282   -406.46473      11.2121 
  501300    215.85036   -406.60352   -406.40821   -1.1280963 
  501400     409.2071   -406.70561   -406.33535   -7.0651117 
  501500    377.07809    -406.6074   -406.26621    -2.656838 
  501600    541.51333   -406.63207    -406.1421    18.993275 
  501700    511.24916   -406.49613   -406.03354   -42.829592 
  501800    668.48464   -406.66122   -406.05636    12.287103 
  501900    396.83429   -406.62108   -406.26202  -0.13703337 
  502000    276.67763   -406.57323   -406.32288   -14.559846 
  502100    322.59349   -406.75798   -406.46609    17.505758 
  502200    279.06732   -406.67349   -406.42098   -2.1073139 
  502300     116.3503   -406.61553   -406.51025   -7.9896122 
  502400    239.18284   -406.70767   -406.49126    25.253598 
  502500    176.45688   -406.56909   -406.40943     -16.8036 
  502600     437.8812    -406.7412     -406.345    11.671068 
  502700    303.24943   -406.46449    -406.1901   -10.250446 
  502800    403.19757   -406.59188   -406.22706    10.890582 
  502900    340.73181   -406.50983   -406.20153    9.4931212 
  503000    413.74453   -406.64239   -406.26803   -21.866657 
  503100    261.14873   -406.63014   -406.39384      13.9352 
  503200    331.71646   -406.66015   -406.36001    12.289468 
  503300    241.45984   -406.59652   -406.37804   -26.753908 
  503400    330.38482   -406.74318   -406.44424    29.353447 
  503500    264.49782   -406.62969   -406.39037    -17.76625 
  503600    399.23294   -406.72137   -406.36014   -6.9460359 
  503700      319.925   -406.65441   -406.36494   -6.1902978 
  503800    317.91145   -406.62625    -406.3386    12.050539 
  503900    511.59193   -406.73742   -406.27452   -14.099934 
  504000    324.10654   -406.53723   -406.24398   -16.452646 
  504100    322.66525   -406.54093   -406.24897    25.259676 
  504200    242.91674   -406.49918   -406.27938   0.28329514 
  504300    278.67159    -406.6184   -406.36625   -13.578415 
  504400    203.53841   -406.66067    -406.4765    20.731185 
  504500    193.29837   -406.69604   -406.52114    1.6439773 
  504600    219.10538   -406.67313   -406.47488   -8.9612775 
  504700    161.89146   -406.55691   -406.41043    14.050256 
  504800    184.10882    -406.5168   -406.35021   -7.2200644 
  504900    281.45158   -406.58189   -406.32723    3.0259258 
WARNING: Wall time limit reached (../timer.cpp:262)
Loop time of 1199.68 on 1 procs for 504900 steps with 8 atoms

Performance: 18.181 ns/day, 1.320 hours/ns, 420.861 timesteps/s
177.8% CPU use with 1 MPI tasks x no OpenMP threads

MPI task timing breakdown:
Section |  min time  |  avg time  |  max time  |%varavg| %total
---------------------------------------------------------------
Pair    | 948.25     | 948.25     | 948.25     |   0.0 | 79.04
Neigh   | 0.016971   | 0.016971   | 0.016971   |   0.0 |  0.00
Comm    | 0.24057    | 0.24057    | 0.24057    |   0.0 |  0.02
Output  | 0.36708    | 0.36708    | 0.36708    |   0.0 |  0.03
Modify  | 250.52     | 250.52     | 250.52     |   0.0 | 20.88
Other   |            | 0.292      |            |       |  0.02

Nlocal:    8 ave 8 max 8 min
Histogram: 1 0 0 0 0 0 0 0 0 0
Nghost:    0 ave 0 max 0 min
Histogram: 1 0 0 0 0 0 0 0 0 0
Neighs:    0 ave 0 max 0 min
Histogram: 1 0 0 0 0 0 0 0 0 0

Total # of neighbors = 0
Ave neighs/atom = 0
Neighbor list builds = 1669
Dangerous builds = 0
System init for write_restart ...
WARNING: Pair style restartinfo set but has no restart support (../pair.cpp:711)
Total wall time: 0:20:01
