ITEM: TIMESTEP
0
ITEM: NUMBER OF ATOMS
8
ITEM: BOX BOUNDS pp pp pp
-2.0000000000000000e+01 2.0000000000000000e+01
-2.0000000000000000e+01 2.0000000000000000e+01
-2.0000000000000000e+01 2.0000000000000000e+01
ITEM: ATOMS id type xs ys zs
3 2 0.448185 0.523455 0.510977
4 2 0.429097 0.539907 0.474475
1 1 0.436933 0.545839 0.5
5 2 0.414696 0.552319 0.514549
8 2 0.450359 0.596857 0.489023
2 1 0.461612 0.574473 0.5
6 2 0.483849 0.567993 0.485451
7 2 0.469447 0.580406 0.525525
ITEM: TIMESTEP
100
ITEM: NUMBER OF ATOMS
8
ITEM: BOX BOUNDS pp pp pp
-2.0000000000000000e+01 2.0000000000000000e+01
-2.0000000000000000e+01 2.0000000000000000e+01
-2.0000000000000000e+01 2.0000000000000000e+01
ITEM: ATOMS id type xs ys zs
3 2 0.448018 0.522922 0.511555
4 2 0.429023 0.540204 0.473255
1 1 0.436414 0.545516 0.500023
5 2 0.412884 0.5513 0.514941
8 2 0.447818 0.596302 0.489578
2 1 0.462241 0.574725 0.499962
6 2 0.485877 0.56863 0.485272
7 2 0.470693 0.582432 0.525575
ITEM: TIMESTEP
200
ITEM: NUMBER OF ATOMS
8
ITEM: BOX BOUNDS pp pp pp
-2.0000000000000000e+01 2.0000000000000000e+01
-2.0000000000000000e+01 2.0000000000000000e+01
-2.0000000000000000e+01 2.0000000000000000e+01
ITEM: ATOMS id type xs ys zs
3 2 0.445909 0.524703 0.515072
4 2 0.432821 0.538555 0.474608
1 1 0.436918 0.545711 0.500036
5 2 0.41396 0.554023 0.510366
8 2 0.447642 0.597132 0.493669
2 1 0.461693 0.574558 0.499879
6 2 0.481367 0.568986 0.483217
7 2 0.473139 0.578048 0.524077
ITEM: TIMESTEP
300
ITEM: NUMBER OF ATOMS
8
ITEM: BOX BOUNDS pp pp pp
-2.0000000000000000e+01 2.0000000000000000e+01
-2.0000000000000000e+01 2.0000000000000000e+01
-2.0000000000000000e+01 2.0000000000000000e+01
ITEM: ATOMS id type xs ys zs
3 2 0.450327 0.521778 0.505937
4 2 0.424331 0.543131 0.474856
1 1 0.43647 0.544638 0.500132
5 2 0.416733 0.551428 0.519196
8 2 0.453101 0.596315 0.484468
2 1 0.462013 0.575743 0.49977
6 2 0.485931 0.564113 0.490345
7 2 0.465934 0.583359 0.526367
ITEM: TIMESTEP
400
ITEM: NUMBER OF ATOMS
8
ITEM: BOX BOUNDS pp pp pp
-2.0000000000000000e+01 2.0000000000000000e+01
-2.0000000000000000e+01 2.0000000000000000e+01
-2.0000000000000000e+01 2.0000000000000000e+01
ITEM: ATOMS id type xs ys zs
3 2 0.452637 0.523599 0.508084
4 2 0.426588 0.540901 0.475311
1 1 0.436718 0.545915 0.500019
5 2 0.417561 0.552444 0.51767
8 2 0.450178 0.596447 0.485099
2 1 0.461771 0.574437 0.499967
6 2 0.484173 0.56601 0.487597
7 2 0.465162 0.581059 0.526407
ITEM: TIMESTEP
500
ITEM: NUMBER OF ATOMS
8
ITEM: BOX BOUNDS pp pp pp
-2.0000000000000000e+01 2.0000000000000000e+01
-2.0000000000000000e+01 2.0000000000000000e+01
-2.0000000000000000e+01 2.0000000000000000e+01
ITEM: ATOMS id type xs ys zs
3 2 0.443624 0.528316 0.518216
4 2 0.437475 0.532819 0.475996
1 1 0.435959 0.544888 0.500209
5 2 0.411398 0.555109 0.50667
8 2 0.448803 0.596495 0.497193
2 1 0.462715 0.575288 0.499979
6 2 0.476779 0.5749 0.47645
7 2 0.476004 0.574934 0.523235
ITEM: TIMESTEP
600
ITEM: NUMBER OF ATOMS
8
ITEM: BOX BOUNDS pp pp pp
-2.0000000000000000e+01 2.0000000000000000e+01
-2.0000000000000000e+01 2.0000000000000000e+01
-2.0000000000000000e+01 2.0000000000000000e+01
ITEM: ATOMS id type xs ys zs
3 2 0.446303 0.523367 0.51759
4 2 0.434957 0.539076 0.473859
1 1 0.436979 0.545603 0.500389
5 2 0.413751 0.556235 0.509978
8 2 0.447077 0.598619 0.49154
2 1 0.461713 0.574603 0.499795
6 2 0.479414 0.570228 0.47993
7 2 0.472375 0.574689 0.524903
ITEM: TIMESTEP
700
ITEM: NUMBER OF ATOMS
8
ITEM: BOX BOUNDS pp pp pp
-2.0000000000000000e+01 2.0000000000000000e+01
-2.0000000000000000e+01 2.0000000000000000e+01
-2.0000000000000000e+01 2.0000000000000000e+01
ITEM: ATOMS id type xs ys zs
3 2 0.449661 0.522699 0.50258
4 2 0.421574 0.546463 0.47709
1 1 0.436212 0.544685 0.499913
5 2 0.419769 0.548252 0.521561
8 2 0.455213 0.593211 0.481287
2 1 0.462237 0.575714 0.499965
6 2 0.486955 0.563342 0.49373
7 2 0.463604 0.585937 0.525214
ITEM: TIMESTEP
800
ITEM: NUMBER OF ATOMS
8
ITEM: BOX BOUNDS pp pp pp
-2.0000000000000000e+01 2.0000000000000000e+01
-2.0000000000000000e+01 2.0000000000000000e+01
-2.0000000000000000e+01 2.0000000000000000e+01
ITEM: ATOMS id type xs ys zs
3 2 0.452964 0.524894 0.507481
4 2 0.423953 0.542368 0.475649
1 1 0.436539 0.545935 0.499519
5 2 0.417626 0.550785 0.518153
8 2 0.449338 0.59563 0.487515
2 1 0.46208 0.57431 0.499984
6 2 0.485249 0.564562 0.491528
7 2 0.465607 0.583502 0.5256
ITEM: TIMESTEP
900
ITEM: NUMBER OF ATOMS
8
ITEM: BOX BOUNDS pp pp pp
-2.0000000000000000e+01 2.0000000000000000e+01
-2.0000000000000000e+01 2.0000000000000000e+01
-2.0000000000000000e+01 2.0000000000000000e+01
ITEM: ATOMS id type xs ys zs
3 2 0.443808 0.527566 0.52042
4 2 0.437193 0.532271 0.475062
1 1 0.436171 0.545067 0.499961
5 2 0.410323 0.555708 0.502312
8 2 0.447119 0.597299 0.503608
2 1 0.46229 0.575264 0.499941
6 2 0.479078 0.572739 0.47785
7 2 0.479097 0.575127 0.521917
ITEM: TIMESTEP
1000
ITEM: NUMBER OF ATOMS
8
ITEM: BOX BOUNDS pp pp pp
-2.0000000000000000e+01 2.0000000000000000e+01
-2.0000000000000000e+01 2.0000000000000000e+01
-2.0000000000000000e+01 2.0000000000000000e+01
ITEM: ATOMS id type xs ys zs
3 2 0.431249 0.536059 0.52471
4 2 0.445733 0.525546 0.484285
1 1 0.437124 0.545436 0.500145
5 2 0.415252 0.556487 0.489061
8 2 0.45153 0.595584 0.515374
2 1 0.461464 0.574745 0.499954
6 2 0.46658 0.582523 0.474029
7 2 0.484774 0.56631 0.511353
ITEM: TIMESTEP
1100
ITEM: NUMBER OF ATOMS
8
ITEM: BOX BOUNDS pp pp pp
-2.0000000000000000e+01 2.0000000000000000e+01
-2.0000000000000000e+01 2.0000000000000000e+01
-2.0000000000000000e+01 2.0000000000000000e+01
ITEM: ATOMS id type xs ys zs
3 2 0.421866 0.543667 0.52386
4 2 0.450875 0.521389 0.49714
1 1 0.436517 0.54532 0.499621
5 2 0.416731 0.548733 0.480194
8 2 0.459361 0.591722 0.522273
2 1 0.462223 0.574871 0.500183
6 2 0.456813 0.592824 0.479126
7 2 0.487664 0.564053 0.499752
ITEM: TIMESTEP
1200
ITEM: NUMBER OF ATOMS
8
ITEM: BOX BOUNDS pp pp pp
-2.0000000000000000e+01 2.0000000000000000e+01
-2.0000000000000000e+01 2.0000000000000000e+01
-2.0000000000000000e+01 2.0000000000000000e+01
ITEM: ATOMS id type xs ys zs
3 2 0.420896 0.546343 0.521685
4 2 0.451192 0.522615 0.500885
1 1 0.436541 0.545652 0.499608
5 2 0.419321 0.545093 0.478219
8 2 0.461514 0.588677 0.52328
2 1 0.462065 0.5746 0.500135
6 2 0.454689 0.593499 0.483023
7 2 0.487291 0.565439 0.495967
ITEM: TIMESTEP
1300
ITEM: NUMBER OF ATOMS
8
ITEM: BOX BOUNDS pp pp pp
-2.0000000000000000e+01 2.0000000000000000e+01
-2.0000000000000000e+01 2.0000000000000000e+01
-2.0000000000000000e+01 2.0000000000000000e+01
ITEM: ATOMS id type xs ys zs
4 2 0.442694 0.523892 0.516089
1 1 0.436915 0.545437 0.500127
3 2 0.41215 0.555332 0.507314
5 2 0.434702 0.533562 0.475103
6 2 0.448839 0.599971 0.497471
8 2 0.475999 0.575922 0.523786
2 1 0.461648 0.57479 0.499915
7 2 0.481032 0.573279 0.479738
ITEM: TIMESTEP
1400
ITEM: NUMBER OF ATOMS
8
ITEM: BOX BOUNDS pp pp pp
-2.0000000000000000e+01 2.0000000000000000e+01
-2.0000000000000000e+01 2.0000000000000000e+01
-2.0000000000000000e+01 2.0000000000000000e+01
ITEM: ATOMS id type xs ys zs
4 2 0.43521 0.529415 0.523296
1 1 0.436968 0.545519 0.499845
3 2 0.411654 0.556214 0.496923
5 2 0.442756 0.526561 0.480423
6 2 0.449569 0.598869 0.507083
8 2 0.483232 0.569671 0.516517
2 1 0.461674 0.574763 0.500227
7 2 0.472044 0.580573 0.474902
ITEM: TIMESTEP
1500
ITEM: NUMBER OF ATOMS
8
ITEM: BOX BOUNDS pp pp pp
-2.0000000000000000e+01 2.0000000000000000e+01
-2.0000000000000000e+01 2.0000000000000000e+01
-2.0000000000000000e+01 2.0000000000000000e+01
ITEM: ATOMS id type xs ys zs
4 2 0.42634 0.540707 0.523496
1 1 0.436716 0.545781 0.499584
3 2 0.414343 0.547875 0.484047
5 2 0.450083 0.52307 0.493521
6 2 0.457228 0.594552 0.517579
8 2 0.487425 0.565718 0.501737
2 1 0.461838 0.574509 0.500521
7 2 0.460102 0.589282 0.478369
ITEM: TIMESTEP
1600
ITEM: NUMBER OF ATOMS
8
ITEM: BOX BOUNDS pp pp pp
-2.0000000000000000e+01 2.0000000000000000e+01
-2.0000000000000000e+01 2.0000000000000000e+01
-2.0000000000000000e+01 2.0000000000000000e+01
ITEM: ATOMS id type xs ys zs
4 2 0.430198 0.538045 0.526767
1 1 0.436862 0.54583 0.500043
3 2 0.412 0.548903 0.487465
5 2 0.44701 0.522907 0.486381
6 2 0.454063 0.59649 0.516268
8 2 0.48712 0.566531 0.508453
2 1 0.461617 0.574469 0.499901
7 2 0.466018 0.588226 0.475328
ITEM: TIMESTEP
1700
ITEM: NUMBER OF ATOMS
8
ITEM: BOX BOUNDS pp pp pp
-2.0000000000000000e+01 2.0000000000000000e+01
-2.0000000000000000e+01 2.0000000000000000e+01
-2.0000000000000000e+01 2.0000000000000000e+01
ITEM: ATOMS id type xs ys zs
4 2 0.437226 0.531716 0.523312
1 1 0.437652 0.545314 0.500322
3 2 0.411111 0.554373 0.497265
5 2 0.437069 0.529585 0.478554
6 2 0.450569 0.59797 0.507995
8 2 0.482021 0.572554 0.518652
2 1 0.461187 0.574639 0.499509
7 2 0.474131 0.57903 0.476236
ITEM: TIMESTEP
1800
ITEM: NUMBER OF ATOMS
8
ITEM: BOX BOUNDS pp pp pp
-2.0000000000000000e+01 2.0000000000000000e+01
-2.0000000000000000e+01 2.0000000000000000e+01
-2.0000000000000000e+01 2.0000000000000000e+01
ITEM: ATOMS id type xs ys zs
4 2 0.436553 0.531747 0.524242
1 1 0.436838 0.5454 0.500214
3 2 0.412022 0.55235 0.495411
5 2 0.438137 0.528118 0.479089
6 2 0.4509 0.597945 0.51027
8 2 0.482555 0.575741 0.516214
2 1 0.462081 0.57464 0.499849
7 2 0.470995 0.578277 0.474024
ITEM: TIMESTEP
1900
ITEM: NUMBER OF ATOMS
8
ITEM: BOX BOUNDS pp pp pp
-2.0000000000000000e+01 2.0000000000000000e+01
-2.0000000000000000e+01 2.0000000000000000e+01
-2.0000000000000000e+01 2.0000000000000000e+01
ITEM: ATOMS id type xs ys zs
4 2 0.425196 0.541245 0.524728
1 1 0.436965 0.546356 0.499971
3 2 0.415325 0.545557 0.480709
5 2 0.449127 0.521517 0.494194
6 2 0.461105 0.590893 0.521242
8 2 0.489326 0.568421 0.500998
2 1 0.461309 0.574391 0.500163
7 2 0.458765 0.588127 0.476534
ITEM: TIMESTEP
2000
ITEM: NUMBER OF ATOMS
8
ITEM: BOX BOUNDS pp pp pp
-2.0000000000000000e+01 2.0000000000000000e+01
-2.0000000000000000e+01 2.0000000000000000e+01
-2.0000000000000000e+01 2.0000000000000000e+01
ITEM: ATOMS id type xs ys zs
4 2 0.413883 0.547936 0.513982
1 1 0.436986 0.545462 0.499777
3 2 0.426909 0.540055 0.475552
5 2 0.447343 0.52293 0.512853
6 2 0.471298 0.579889 0.526514
8 2 0.483621 0.569226 0.485536
2 1 0.461419 0.574945 0.499837
7 2 0.454241 0.599773 0.490155
ITEM: TIMESTEP
2100
ITEM: NUMBER OF ATOMS
8
ITEM: BOX BOUNDS pp pp pp
-2.0000000000000000e+01 2.0000000000000000e+01
-2.0000000000000000e+01 2.0000000000000000e+01
-2.0000000000000000e+01 2.0000000000000000e+01
ITEM: ATOMS id type xs ys zs
1 1 0.437604 0.545612 0.500232
3 2 0.438829 0.529406 0.478415
5 2 0.435115 0.535011 0.524222
4 2 0.411407 0.552693 0.494995
7 2 0.45105 0.597689 0.511188
6 2 0.481162 0.571571 0.517771
8 2 0.471059 0.581764 0.474023
2 1 0.461529 0.574097 0.499717
ITEM: TIMESTEP
2200
ITEM: NUMBER OF ATOMS
8
ITEM: BOX BOUNDS pp pp pp
-2.0000000000000000e+01 2.0000000000000000e+01
-2.0000000000000000e+01 2.0000000000000000e+01
-2.0000000000000000e+01 2.0000000000000000e+01
ITEM: ATOMS id type xs ys zs
1 1 0.436576 0.545528 0.5001
3 2 0.447498 0.521485 0.493372
5 2 0.422971 0.543299 0.525111
4 2 0.417542 0.54635 0.480314
7 2 0.460996 0.590599 0.521621
6 2 0.48924 0.56987 0.501248
8 2 0.455862 0.588955 0.478087
2 1 0.462096 0.574816 0.49992
ITEM: TIMESTEP
2300
ITEM: NUMBER OF ATOMS
8
ITEM: BOX BOUNDS pp pp pp
-2.0000000000000000e+01 2.0000000000000000e+01
-2.0000000000000000e+01 2.0000000000000000e+01
-2.0000000000000000e+01 2.0000000000000000e+01
ITEM: ATOMS id type xs ys zs
1 1 0.437045 0.546048 0.500051
3 2 0.448044 0.522076 0.489056
5 2 0.430317 0.537551 0.524844
4 2 0.413597 0.551463 0.485772
7 2 0.455607 0.594355 0.519229
6 2 0.487026 0.567189 0.506262
8 2 0.463713 0.584866 0.474137
2 1 0.461276 0.574553 0.500008
ITEM: TIMESTEP
2400
ITEM: NUMBER OF ATOMS
8
ITEM: BOX BOUNDS pp pp pp
-2.0000000000000000e+01 2.0000000000000000e+01
-2.0000000000000000e+01 2.0000000000000000e+01
-2.0000000000000000e+01 2.0000000000000000e+01
ITEM: ATOMS id type xs ys zs
1 1 0.436675 0.545538 0.500007
3 2 0.440558 0.527225 0.480751
5 2 0.440082 0.527515 0.52136
4 2 0.411333 0.555101 0.499719
7 2 0.4502 0.599483 0.507038
6 2 0.482336 0.568556 0.517449
8 2 0.476705 0.577836 0.47696
2 1 0.461401 0.575213 0.499718
ITEM: TIMESTEP
2500
ITEM: NUMBER OF ATOMS
8
ITEM: BOX BOUNDS pp pp pp
-2.0000000000000000e+01 2.0000000000000000e+01
-2.0000000000000000e+01 2.0000000000000000e+01
-2.0000000000000000e+01 2.0000000000000000e+01
ITEM: ATOMS id type xs ys zs
1 1 0.436979 0.545782 0.499927
3 2 0.447552 0.523064 0.488289
5 2 0.431247 0.536963 0.524591
4 2 0.412861 0.554515 0.489432
7 2 0.450483 0.593645 0.515629
6 2 0.486022 0.565963 0.507377
8 2 0.465462 0.587676 0.476327
2 1 0.461733 0.574456 0.499935
ITEM: TIMESTEP
2600
ITEM: NUMBER OF ATOMS
8
ITEM: BOX BOUNDS pp pp pp
-2.0000000000000000e+01 2.0000000000000000e+01
-2.0000000000000000e+01 2.0000000000000000e+01
-2.0000000000000000e+01 2.0000000000000000e+01
ITEM: ATOMS id type xs ys zs
1 1 0.436685 0.545443 0.499565
3 2 0.44901 0.521238 0.492528
5 2 0.423761 0.542017 0.525203
4 2 0.415874 0.550606 0.482693
7 2 0.455803 0.592837 0.519881
6 2 0.48894 0.566179 0.500555
8 2 0.457363 0.59079 0.478016
2 1 0.462269 0.574641 0.500529
ITEM: TIMESTEP
2700
ITEM: NUMBER OF ATOMS
8
ITEM: BOX BOUNDS pp pp pp
-2.0000000000000000e+01 2.0000000000000000e+01
-2.0000000000000000e+01 2.0000000000000000e+01
-2.0000000000000000e+01 2.0000000000000000e+01
ITEM: ATOMS id type xs ys zs
1 1 0.437189 0.545547 0.500015
3 2 0.442656 0.529374 0.478609
5 2 0.434856 0.533855 0.524253
4 2 0.410699 0.553688 0.494014
7 2 0.451074 0.598246 0.510306
6 2 0.483741 0.567834 0.515403
8 2 0.468285 0.57994 0.474213
2 1 0.461718 0.574597 0.500253
ITEM: TIMESTEP
2800
ITEM: NUMBER OF ATOMS
8
ITEM: BOX BOUNDS pp pp pp
-2.0000000000000000e+01 2.0000000000000000e+01
-2.0000000000000000e+01 2.0000000000000000e+01
-2.0000000000000000e+01 2.0000000000000000e+01
ITEM: ATOMS id type xs ys zs
1 1 0.436586 0.545167 0.499893
3 2 0.439312 0.531197 0.477112
5 2 0.440718 0.531633 0.523404
4 2 0.410876 0.551862 0.497607
7 2 0.451901 0.598763 0.509323
6 2 0.480238 0.569485 0.519389
8 2 0.473859 0.576564 0.475263
2 1 0.461852 0.575266 0.499931
ITEM: TIMESTEP
2900
ITEM: NUMBER OF ATOMS
8
ITEM: BOX BOUNDS pp pp pp
-2.0000000000000000e+01 2.0000000000000000e+01
-2.0000000000000000e+01 2.0000000000000000e+01
-2.0000000000000000e+01 2.0000000000000000e+01
ITEM: ATOMS id type xs ys zs
1 1 0.436422 0.545876 0.499892
3 2 0.449411 0.521982 0.492705
5 2 0.427979 0.542634 0.525895
4 2 0.416158 0.548669 0.480255
7 2 0.45764 0.588267 0.523574
6 2 0.48832 0.566722 0.501885
8 2 0.459685 0.588574 0.476473
2 1 0.461823 0.57478 0.500042
ITEM: TIMESTEP
3000
ITEM: NUMBER OF ATOMS
8
ITEM: BOX BOUNDS pp pp pp
-2.0000000000000000e+01 2.0000000000000000e+01
-2.0000000000000000e+01 2.0000000000000000e+01
-2.0000000000000000e+01 2.0000000000000000e+01
ITEM: ATOMS id type xs ys zs
1 1 0.436578 0.545476 0.499696
3 2 0.448857 0.521348 0.506908
5 2 0.417347 0.5487 0.518851
4 2 0.42506 0.54448 0.475168
7 2 0.466724 0.584025 0.526023
6 2 0.48478 0.568261 0.486992
8 2 0.450683 0.594328 0.484947
2 1 0.462149 0.574819 0.500397
ITEM: TIMESTEP
3100
ITEM: NUMBER OF ATOMS
8
ITEM: BOX BOUNDS pp pp pp
-2.0000000000000000e+01 2.0000000000000000e+01
-2.0000000000000000e+01 2.0000000000000000e+01
-2.0000000000000000e+01 2.0000000000000000e+01
ITEM: ATOMS id type xs ys zs
3 2 0.443736 0.52715 0.518394
4 2 0.433507 0.537624 0.473861
1 1 0.437305 0.545178 0.500109
5 2 0.411009 0.553654 0.504404
8 2 0.448591 0.599743 0.501578
7 2 0.475854 0.575899 0.523909
6 2 0.477475 0.570802 0.477394
2 1 0.461697 0.574804 0.49993
ITEM: TIMESTEP
3200
ITEM: NUMBER OF ATOMS
8
ITEM: BOX BOUNDS pp pp pp
-2.0000000000000000e+01 2.0000000000000000e+01
-2.0000000000000000e+01 2.0000000000000000e+01
-2.0000000000000000e+01 2.0000000000000000e+01
ITEM: ATOMS id type xs ys zs
3 2 0.448608 0.525731 0.516524
4 2 0.430308 0.537583 0.47473
1 1 0.43664 0.545278 0.499693
5 2 0.41171 0.551834 0.50806
8 2 0.449815 0.598664 0.49917
7 2 0.473166 0.577569 0.524269
6 2 0.480707 0.569321 0.481266
2 1 0.462015 0.575054 0.499969
ITEM: TIMESTEP
3300
ITEM: NUMBER OF ATOMS
8
ITEM: BOX BOUNDS pp pp pp
-2.0000000000000000e+01 2.0000000000000000e+01
-2.0000000000000000e+01 2.0000000000000000e+01
-2.0000000000000000e+01 2.0000000000000000e+01
ITEM: ATOMS id type xs ys zs
3 2 0.450249 0.522792 0.498972
4 2 0.418364 0.545007 0.478001
1 1 0.436817 0.545681 0.499485
5 2 0.421677 0.547024 0.522839
8 2 0.45361 0.594041 0.482324
7 2 0.461216 0.587163 0.525089
6 2 0.487713 0.566138 0.496192
2 1 0.461963 0.574528 0.500228
ITEM: TIMESTEP
3400
ITEM: NUMBER OF ATOMS
8
ITEM: BOX BOUNDS pp pp pp
-2.0000000000000000e+01 2.0000000000000000e+01
-2.0000000000000000e+01 2.0000000000000000e+01
-2.0000000000000000e+01 2.0000000000000000e+01
ITEM: ATOMS id type xs ys zs
3 2 0.44663 0.520623 0.488802
4 2 0.416739 0.550899 0.481712
1 1 0.436697 0.545411 0.499896
5 2 0.427544 0.541565 0.525488
8 2 0.459581 0.588115 0.475406
7 2 0.456985 0.591246 0.522556
6 2 0.488807 0.566785 0.503515
2 1 0.461793 0.575045 0.500316
ITEM: TIMESTEP
3500
ITEM: NUMBER OF ATOMS
8
ITEM: BOX BOUNDS pp pp pp
-2.0000000000000000e+01 2.0000000000000000e+01
-2.0000000000000000e+01 2.0000000000000000e+01
-2.0000000000000000e+01 2.0000000000000000e+01
ITEM: ATOMS id type xs ys zs
3 2 0.438463 0.532201 0.477363
4 2 0.411185 0.553889 0.496661
1 1 0.436803 0.545538 0.499904
5 2 0.441492 0.528484 0.520901
8 2 0.474569 0.57429 0.477284
7 2 0.450844 0.597951 0.508256
6 2 0.481278 0.571463 0.517802
2 1 0.461557 0.574997 0.500242
ITEM: TIMESTEP
3600
ITEM: NUMBER OF ATOMS
8
ITEM: BOX BOUNDS pp pp pp
-2.0000000000000000e+01 2.0000000000000000e+01
-2.0000000000000000e+01 2.0000000000000000e+01
-2.0000000000000000e+01 2.0000000000000000e+01
ITEM: ATOMS id type xs ys zs
3 2 0.424971 0.540862 0.474057
4 2 0.414967 0.549649 0.515899
1 1 0.436697 0.545882 0.49944
5 2 0.450272 0.523076 0.505901
8 2 0.485983 0.566619 0.488389
7 2 0.450337 0.597595 0.489468
6 2 0.469867 0.582635 0.526315
2 1 0.461784 0.574473 0.500558
ITEM: TIMESTEP
3700
ITEM: NUMBER OF ATOMS
8
ITEM: BOX BOUNDS pp pp pp
-2.0000000000000000e+01 2.0000000000000000e+01
-2.0000000000000000e+01 2.0000000000000000e+01
-2.0000000000000000e+01 2.0000000000000000e+01
ITEM: ATOMS id type xs ys zs
3 2 0.415219 0.550136 0.482691
4 2 0.427843 0.541883 0.525698
1 1 0.436694 0.545793 0.499335
5 2 0.446956 0.52094 0.489477
8 2 0.488278 0.567537 0.504586
7 2 0.459969 0.589996 0.477495
6 2 0.4561 0.590885 0.521953
2 1 0.461957 0.574483 0.500506
ITEM: TIMESTEP
3800
ITEM: NUMBER OF ATOMS
8
ITEM: BOX BOUNDS pp pp pp
-2.0000000000000000e+01 2.0000000000000000e+01
-2.0000000000000000e+01 2.0000000000000000e+01
-2.0000000000000000e+01 2.0000000000000000e+01
ITEM: ATOMS id type xs ys zs
3 2 0.412313 0.555644 0.493712
4 2 0.437672 0.530361 0.522096
1 1 0.436863 0.54552 0.499635
5 2 0.439366 0.529268 0.479104
8 2 0.483955 0.570686 0.515756
7 2 0.472971 0.579366 0.476344
6 2 0.449885 0.596327 0.511473
2 1 0.461637 0.574733 0.500492
ITEM: TIMESTEP
3900
ITEM: NUMBER OF ATOMS
8
ITEM: BOX BOUNDS pp pp pp
-2.0000000000000000e+01 2.0000000000000000e+01
-2.0000000000000000e+01 2.0000000000000000e+01
-2.0000000000000000e+01 2.0000000000000000e+01
ITEM: ATOMS id type xs ys zs
3 2 0.415446 0.553363 0.48431
4 2 0.429489 0.535267 0.524112
1 1 0.436699 0.546014 0.499761
5 2 0.44687 0.522727 0.486334
8 2 0.487834 0.565998 0.504976
7 2 0.466051 0.586063 0.475648
6 2 0.455021 0.593639 0.520262
2 1 0.461419 0.574625 0.500605
ITEM: TIMESTEP
4000
ITEM: NUMBER OF ATOMS
8
ITEM: BOX BOUNDS pp pp pp
-2.0000000000000000e+01 2.0000000000000000e+01
-2.0000000000000000e+01 2.0000000000000000e+01
-2.0000000000000000e+01 2.0000000000000000e+01
ITEM: ATOMS id type xs ys zs
3 2 0.414438 0.550455 0.482286
4 2 0.425886 0.538738 0.524458
1 1 0.436585 0.545895 0.499205
5 2 0.449169 0.522742 0.493585
8 2 0.487328 0.565636 0.500591
7 2 0.461565 0.590889 0.478619
6 2 0.457509 0.59159 0.520948
2 1 0.461937 0.574492 0.500754
ITEM: TIMESTEP
4100
ITEM: NUMBER OF ATOMS
8
ITEM: BOX BOUNDS pp pp pp
-2.0000000000000000e+01 2.0000000000000000e+01
-2.0000000000000000e+01 2.0000000000000000e+01
-2.0000000000000000e+01 2.0000000000000000e+01
ITEM: ATOMS id type xs ys zs
3 2 0.411504 0.554795 0.496126
4 2 0.434001 0.533567 0.522571
1 1 0.436681 0.546022 0.499154
5 2 0.445815 0.52487 0.48386
8 2 0.485417 0.565973 0.513033
7 2 0.47013 0.585688 0.477081
6 2 0.450081 0.596836 0.511808
2 1 0.461753 0.574223 0.50047
ITEM: TIMESTEP
4200
ITEM: NUMBER OF ATOMS
8
ITEM: BOX BOUNDS pp pp pp
-2.0000000000000000e+01 2.0000000000000000e+01
-2.0000000000000000e+01 2.0000000000000000e+01
-2.0000000000000000e+01 2.0000000000000000e+01
ITEM: ATOMS id type xs ys zs
4 2 0.432871 0.530368 0.523177
5 2 0.441431 0.528729 0.478919
3 2 0.411233 0.555261 0.499047
1 1 0.43703 0.545467 0.499512
6 2 0.451057 0.598198 0.509108
8 2 0.482005 0.569005 0.517618
7 2 0.472392 0.583455 0.476106
2 1 0.461904 0.574503 0.500155
ITEM: TIMESTEP
4300
ITEM: NUMBER OF ATOMS
8
ITEM: BOX BOUNDS pp pp pp
-2.0000000000000000e+01 2.0000000000000000e+01
-2.0000000000000000e+01 2.0000000000000000e+01
-2.0000000000000000e+01 2.0000000000000000e+01
ITEM: ATOMS id type xs ys zs
4 2 0.42502 0.541742 0.522989
5 2 0.447537 0.521711 0.488097
3 2 0.414092 0.550433 0.482485
1 1 0.437142 0.545817 0.499949
6 2 0.460221 0.591878 0.521856
8 2 0.488152 0.568039 0.505057
7 2 0.458692 0.588467 0.47737
2 1 0.461563 0.574384 0.500231
ITEM: TIMESTEP
4400
ITEM: NUMBER OF ATOMS
8
ITEM: BOX BOUNDS pp pp pp
-2.0000000000000000e+01 2.0000000000000000e+01
-2.0000000000000000e+01 2.0000000000000000e+01
-2.0000000000000000e+01 2.0000000000000000e+01
ITEM: ATOMS id type xs ys zs
4 2 0.415388 0.549212 0.519172
5 2 0.447723 0.522724 0.505428
3 2 0.428526 0.538985 0.474913
1 1 0.436473 0.545922 0.499474
6 2 0.472617 0.580523 0.525106
8 2 0.484683 0.569728 0.486855
7 2 0.451405 0.596844 0.486196
2 1 0.461676 0.574636 0.500721
ITEM: TIMESTEP
4500
ITEM: NUMBER OF ATOMS
8
ITEM: BOX BOUNDS pp pp pp
-2.0000000000000000e+01 2.0000000000000000e+01
-2.0000000000000000e+01 2.0000000000000000e+01
-2.0000000000000000e+01 2.0000000000000000e+01
ITEM: ATOMS id type xs ys zs
4 2 0.412171 0.554904 0.501465
5 2 0.436784 0.529155 0.522778
3 2 0.442752 0.527922 0.479833
1 1 0.4366 0.546174 0.499433
6 2 0.481725 0.567417 0.517579
8 2 0.474149 0.582365 0.475867
7 2 0.451756 0.597237 0.508158
2 1 0.461634 0.574301 0.50009
ITEM: TIMESTEP
4600
ITEM: NUMBER OF ATOMS
8
ITEM: BOX BOUNDS pp pp pp
-2.0000000000000000e+01 2.0000000000000000e+01
-2.0000000000000000e+01 2.0000000000000000e+01
-2.0000000000000000e+01 2.0000000000000000e+01
ITEM: ATOMS id type xs ys zs
4 2 0.412734 0.551994 0.486042
5 2 0.424632 0.541942 0.52336
3 2 0.448376 0.522028 0.490589
1 1 0.436813 0.545378 0.499605
6 2 0.487722 0.565286 0.505233
8 2 0.460387 0.591522 0.479065
7 2 0.458631 0.592555 0.522646
2 1 0.461996 0.574566 0.499813
ITEM: TIMESTEP
4700
ITEM: NUMBER OF ATOMS
8
ITEM: BOX BOUNDS pp pp pp
-2.0000000000000000e+01 2.0000000000000000e+01
-2.0000000000000000e+01 2.0000000000000000e+01
-2.0000000000000000e+01 2.0000000000000000e+01
ITEM: ATOMS id type xs ys zs
4 2 0.411386 0.555846 0.495462
5 2 0.434591 0.533893 0.524633
3 2 0.441038 0.527774 0.479019
1 1 0.437039 0.54575 0.499483
6 2 0.484276 0.571455 0.515533
8 2 0.4673 0.582305 0.473929
7 2 0.451138 0.595512 0.511864
2 1 0.462001 0.574071 0.50048
ITEM: TIMESTEP
4800
ITEM: NUMBER OF ATOMS
8
ITEM: BOX BOUNDS pp pp pp
-2.0000000000000000e+01 2.0000000000000000e+01
-2.0000000000000000e+01 2.0000000000000000e+01
-2.0000000000000000e+01 2.0000000000000000e+01
ITEM: ATOMS id type xs ys zs
4 2 0.412815 0.552982 0.48692
5 2 0.433823 0.534699 0.525912
3 2 0.443404 0.525489 0.482346
1 1 0.436484 0.545771 0.499842
6 2 0.488015 0.569842 0.509228
8 2 0.465779 0.582059 0.474724
7 2 0.453386 0.594872 0.517948
2 1 0.461927 0.574625 0.500403
ITEM: TIMESTEP
4900
ITEM: NUMBER OF ATOMS
8
ITEM: BOX BOUNDS pp pp pp
-2.0000000000000000e+01 2.0000000000000000e+01
-2.0000000000000000e+01 2.0000000000000000e+01
-2.0000000000000000e+01 2.0000000000000000e+01
ITEM: ATOMS id type xs ys zs
4 2 0.414923 0.552225 0.485433
5 2 0.433268 0.537044 0.524369
3 2 0.44586 0.524245 0.485983
1 1 0.436679 0.545989 0.50011
6 2 0.48675 0.565412 0.505461
8 2 0.46636 0.585588 0.475328
7 2 0.454944 0.592564 0.520131
2 1 0.461323 0.574648 0.500167
ITEM: TIMESTEP
5000
ITEM: NUMBER OF ATOMS
8
ITEM: BOX BOUNDS pp pp pp
-2.0000000000000000e+01 2.0000000000000000e+01
-2.0000000000000000e+01 2.0000000000000000e+01
-2.0000000000000000e+01 2.0000000000000000e+01
ITEM: ATOMS id type xs ys zs
4 2 0.410177 0.555284 0.499543
5 2 0.44072 0.529066 0.522822
3 2 0.440557 0.528547 0.478608
1 1 0.436441 0.545465 0.499716
6 2 0.482328 0.566662 0.516595
8 2 0.473939 0.581271 0.476058
7 2 0.450769 0.599112 0.507875
2 1 0.461864 0.574931 0.500158
ITEM: TIMESTEP
5100
ITEM: NUMBER OF ATOMS
8
ITEM: BOX BOUNDS pp pp pp
-2.0000000000000000e+01 2.0000000000000000e+01
-2.0000000000000000e+01 2.0000000000000000e+01
-2.0000000000000000e+01 2.0000000000000000e+01
ITEM: ATOMS id type xs ys zs
4 2 0.411391 0.555611 0.490765
5 2 0.431626 0.536964 0.525017
3 2 0.447375 0.524206 0.48522
1 1 0.436877 0.545852 0.499657
6 2 0.48681 0.565115 0.508487
8 2 0.462274 0.588381 0.476276
7 2 0.452345 0.594785 0.51551
2 1 0.461987 0.574114 0.500236
ITEM: TIMESTEP
5200
ITEM: NUMBER OF ATOMS
8
ITEM: BOX BOUNDS pp pp pp
-2.0000000000000000e+01 2.0000000000000000e+01
-2.0000000000000000e+01 2.0000000000000000e+01
-2.0000000000000000e+01 2.0000000000000000e+01
ITEM: ATOMS id type xs ys zs
4 2 0.414656 0.553991 0.488831
5 2 0.427369 0.53861 0.524712
3 2 0.447236 0.524808 0.486877
1 1 0.436487 0.545333 0.499593
6 2 0.487394 0.566233 0.505611
8 2 0.459443 0.58784 0.477063
7 2 0.455758 0.593786 0.518578
2 1 0.462375 0.574615 0.500267
ITEM: TIMESTEP
5300
ITEM: NUMBER OF ATOMS
8
ITEM: BOX BOUNDS pp pp pp
-2.0000000000000000e+01 2.0000000000000000e+01
-2.0000000000000000e+01 2.0000000000000000e+01
-2.0000000000000000e+01 2.0000000000000000e+01
ITEM: ATOMS id type xs ys zs
4 2 0.409846 0.554748 0.495227
5 2 0.435532 0.53307 0.52377
3 2 0.446064 0.529681 0.478678
1 1 0.436846 0.545718 0.499836
6 2 0.484443 0.565521 0.513492
8 2 0.467604 0.580652 0.473282
7 2 0.454069 0.597338 0.514808
2 1 0.461536 0.574589 0.500227
ITEM: TIMESTEP
5400
ITEM: NUMBER OF ATOMS
8
ITEM: BOX BOUNDS pp pp pp
-2.0000000000000000e+01 2.0000000000000000e+01
-2.0000000000000000e+01 2.0000000000000000e+01
-2.0000000000000000e+01 2.0000000000000000e+01
ITEM: ATOMS id type xs ys zs
4 2 0.413345 0.551833 0.486295
5 2 0.432399 0.5369 0.52692
3 2 0.447525 0.524762 0.485983
1 1 0.436171 0.545493 0.499605
6 2 0.487486 0.564546 0.505299
8 2 0.465155 0.586705 0.475634
7 2 0.457452 0.590587 0.522099
2 1 0.461725 0.57529 0.500208
ITEM: TIMESTEP
5500
ITEM: NUMBER OF ATOMS
8
ITEM: BOX BOUNDS pp pp pp
-2.0000000000000000e+01 2.0000000000000000e+01
-2.0000000000000000e+01 2.0000000000000000e+01
-2.0000000000000000e+01 2.0000000000000000e+01
ITEM: ATOMS id type xs ys zs
4 2 0.412026 0.555089 0.492386
5 2 0.438861 0.534664 0.522742
3 2 0.442119 0.526396 0.481004
1 1 0.436589 0.545985 0.499724
6 2 0.485552 0.567282 0.509497
8 2 0.468745 0.582436 0.4758
7 2 0.450765 0.593204 0.51684
2 1 0.461751 0.574484 0.500421
ITEM: TIMESTEP
5600
ITEM: NUMBER OF ATOMS
8
ITEM: BOX BOUNDS pp pp pp
-2.0000000000000000e+01 2.0000000000000000e+01
-2.0000000000000000e+01 2.0000000000000000e+01
-2.0000000000000000e+01 2.0000000000000000e+01
ITEM: ATOMS id type xs ys zs
4 2 0.413395 0.554587 0.487821
5 2 0.433334 0.535051 0.526033
3 2 0.44489 0.524249 0.484903
1 1 0.436349 0.545593 0.499557
6 2 0.489019 0.566311 0.503899
8 2 0.462849 0.587714 0.475629
7 2 0.453105 0.593352 0.519241
2 1 0.462115 0.574692 0.500651
ITEM: TIMESTEP
5700
ITEM: NUMBER OF ATOMS
8
ITEM: BOX BOUNDS pp pp pp
-2.0000000000000000e+01 2.0000000000000000e+01
-2.0000000000000000e+01 2.0000000000000000e+01
-2.0000000000000000e+01 2.0000000000000000e+01
ITEM: ATOMS id type xs ys zs
4 2 0.412174 0.556857 0.492562
5 2 0.432876 0.533841 0.524114
3 2 0.445187 0.526894 0.480826
1 1 0.437088 0.545633 0.499867
6 2 0.485916 0.565303 0.508657
8 2 0.462605 0.58685 0.474808
7 2 0.453259 0.595275 0.516021
2 1 0.46176 0.574337 0.500386
ITEM: TIMESTEP
5800
ITEM: NUMBER OF ATOMS
8
ITEM: BOX BOUNDS pp pp pp
-2.0000000000000000e+01 2.0000000000000000e+01
-2.0000000000000000e+01 2.0000000000000000e+01
-2.0000000000000000e+01 2.0000000000000000e+01
ITEM: ATOMS id type xs ys zs
4 2 0.411214 0.554033 0.49801
5 2 0.435495 0.530545 0.522746
3 2 0.443824 0.52982 0.478914
1 1 0.436601 0.545362 0.499667
6 2 0.484255 0.56553 0.513611
8 2 0.46633 0.583797 0.47597
7 2 0.454702 0.597658 0.513742
2 1 0.461927 0.574913 0.500082
ITEM: TIMESTEP
5900
ITEM: NUMBER OF ATOMS
8
ITEM: BOX BOUNDS pp pp pp
-2.0000000000000000e+01 2.0000000000000000e+01
-2.0000000000000000e+01 2.0000000000000000e+01
-2.0000000000000000e+01 2.0000000000000000e+01
ITEM: ATOMS id type xs ys zs
4 2 0.410797 0.551798 0.491991
5 2 0.432206 0.537631 0.524936
3 2 0.447873 0.525897 0.483655
1 1 0.436865 0.546001 0.499432
6 2 0.485345 0.564229 0.507931
8 2 0.460485 0.589889 0.476231
7 2 0.457121 0.593408 0.519561
2 1 0.461831 0.574151 0.500207
ITEM: TIMESTEP
6000
ITEM: NUMBER OF ATOMS
8
ITEM: BOX BOUNDS pp pp pp
-2.0000000000000000e+01 2.0000000000000000e+01
-2.0000000000000000e+01 2.0000000000000000e+01
-2.0000000000000000e+01 2.0000000000000000e+01
ITEM: ATOMS id type xs ys zs
4 2 0.412519 0.550554 0.486033
5 2 0.429229 0.540144 0.525964
3 2 0.446579 0.523091 0.487467
1 1 0.436418 0.545568 0.499435
6 2 0.48969 0.56636 0.501794
8 2 0.458957 0.590637 0.479278
7 2 0.458986 0.590071 0.523045
2 1 0.462099 0.574751 0.500264
ITEM: TIMESTEP
6100
ITEM: NUMBER OF ATOMS
8
ITEM: BOX BOUNDS pp pp pp
-2.0000000000000000e+01 2.0000000000000000e+01
-2.0000000000000000e+01 2.0000000000000000e+01
-2.0000000000000000e+01 2.0000000000000000e+01
ITEM: ATOMS id type xs ys zs
4 2 0.412438 0.557604 0.496289
5 2 0.438808 0.528887 0.521731
3 2 0.436852 0.529715 0.47733
1 1 0.43712 0.545801 0.499811
6 2 0.485991 0.569851 0.51166