LAMMPS (7 Aug 2019)
#lammps input to simulate amorphous TiO2 using the MA potential

#Initialization
units metal
dimension 3
atom_style atomic #Atomic system with charges

read_data conf.lmp
  orthogonal box = (-20 -20 -20) to (20 20 20)
  1 by 1 by 1 MPI processor grid
  reading atoms ...
  8 atoms
  read_data CPU = 0.000151873 secs

#Interatomic potentials - DeepMD
pair_style	deepmd ./graph1.pb ./graph2.pb ./graph3.pb
#pair_style	deepmd graph1.pb
pair_coeff


#MD parameters
timestep 0.0005 #ps
velocity all create 300.0 1815191 mom yes rot yes dist gaussian

#Run MD - equil at 330K
run_style verlet #Velocity verlet
fix 1 all nvt temp 300 300 0.1 #NH thermostat - 330K with 100 fs frequency
fix 2 all momentum 1 linear 0 0 0 #Remove total linear momentum of the system at each step
fix 3 all recenter INIT INIT INIT
fix 4 all plumed plumedfile plumed.in outfile plumed.out
thermo_style custom step temp pe etotal press #Setting printing
thermo 100 #Ouputing thermodynamic properties
dump 1 all atom 100 pos.lammpstrj
#dump 2 all custom 100 vel.xyz id type vx vy vz
timer timeout 0:20:00 every 100
New timer settings: style=normal  mode=nosync  timeout=00:20:00
run 20000000 #10 ns
Neighbor list info ...
  update every 1 steps, delay 10 steps, check yes
  max neighbors/atom: 2000, page size: 100000
  master list distance cutoff = 7
  ghost atom cutoff = 7
  binsize = 3.5, bins = 12 12 12
  1 neighbor lists, perpetual/occasional/extra = 1 0 0
  (1) pair deepmd, perpetual
      attributes: , newton on
      pair build: full/bin/atomonly
      stencil: full/bin/3d
      bin: standard
Per MPI rank memory allocation (min/avg/max) = 3.701 | 3.701 | 3.701 Mbytes
Step Temp PotEng TotEng Press 
       0          300   -406.91159   -406.64015    18.014933 
     100    151.16261   -406.74688   -406.61011   -53.608014 
     200    244.06046   -406.75801   -406.53718    54.193667 
     300    230.77669   -406.62451   -406.41569   -45.622744 
     400      299.751   -406.63845   -406.36723    11.720818 
     500    126.22073   -406.43383   -406.31962    40.005804 
     600     131.5532   -406.40149   -406.28245    -23.06746 
     700    320.13768   -406.56188   -406.27221    32.240709 
     800    236.58172   -406.51297    -406.2989    4.3548552 
     900     385.6128   -406.69128   -406.34237   -20.922615 
    1000    307.21958   -406.69782   -406.41984    10.862596 
    1100    214.32153    -406.6598   -406.46587   -28.601977 
    1200     356.7278   -406.77227   -406.44949     13.57017 
    1300    341.36439   -406.74135   -406.43247   -14.912913 
    1400    298.86191   -406.68051   -406.41009   -14.299531 
    1500    293.63668   -406.64283   -406.37715    39.022201 
    1600    318.21275   -406.65757   -406.36965   -32.697868 
    1700    396.21218   -406.71743   -406.35893    40.994056 
    1800    350.09247   -406.71556   -406.39879   -6.0135762 
    1900    432.45186   -406.76514   -406.37385    6.2450924 
    2000    416.24058   -406.77745   -406.40083   -2.9489303 
    2100    305.01269   -406.71323   -406.43725    7.8511744 
    2200    260.28973   -406.71362    -406.4781   -14.107053 
    2300    262.98671   -406.73553   -406.49757   -3.2644193 
    2400     138.3762   -406.64051   -406.51531   -2.9391319 
    2500    205.61856   -406.70562   -406.51957    8.4565095 
    2600    299.89086   -406.78484   -406.51349   -22.419664 
    2700    319.32676   -406.79106   -406.50212    26.102889 
    2800    318.73022   -406.82024   -406.53185   -3.5756742 
    2900    312.66035   -406.79785   -406.51495    5.4961341 
    3000    266.57704   -406.76956   -406.52835    7.6349867 
    3100     254.7331   -406.77063   -406.54014   -10.454697 
    3200    220.25211   -406.76621   -406.56693    1.3837405 
    3300    212.33803   -406.76392    -406.5718   -8.4193118 
    3400    159.05815   -406.74845   -406.60453   -4.9614728 
    3500    197.97962   -406.75037   -406.57124    6.8715534 
    3600    235.65972   -406.75646   -406.54323   -17.236429 
    3700    155.55932    -406.6882   -406.54745    16.090164 
    3800    280.70246   -406.70347   -406.44948    -1.245507 
    3900    250.51608   -406.57282   -406.34615   -18.146001 
    4000    342.53146    -406.5849   -406.27497    27.527501 
    4100    441.97784   -406.65013   -406.25022   -8.3783055 
    4200    493.23032    -406.7747   -406.32841   -4.7938763 
    4300    186.86571   -406.60964   -406.44056    7.4627534 
    4400    204.89127   -406.66584   -406.48045    -10.82002 
    4500    269.11185   -406.72356   -406.48007   -1.8087394 
    4600    181.58479   -406.61905   -406.45475   -8.8164631 
    4700    194.47736   -406.63676   -406.46079    8.6675089 
    4800    314.60142   -406.71127   -406.42662    9.6057408 
    4900    316.67271   -406.71176   -406.42523   -30.854763 
    5000    253.62594   -406.68719   -406.45771    39.173908 
    5100     223.7334   -406.73024    -406.5278   -16.321953 
    5200    277.90572   -406.81601   -406.56455   -2.5801098 
    5300     130.2159   -406.68337   -406.56555    2.7046178 
    5400    190.98064     -406.712    -406.5392   0.99765991 
    5500    251.33424    -406.7029   -406.47549   -7.6967386 
    5600    205.99257   -406.53942   -406.35303  -0.85165552 
    5700    363.92817   -406.60623   -406.27694    11.795617 
    5800    391.64096   -406.62368   -406.26931    3.4585655 
    5900    355.56899   -406.58754   -406.26582   -7.9486627 
    6000    319.67609   -406.60123   -406.31199    17.402157 
    6100    424.60039     -406.708   -406.32382  -0.93811885 
    6200    224.16844   -406.58197   -406.37914   -15.784475 
    6300     302.7156   -406.67868   -406.40478    15.867046 
    6400    356.45397   -406.71283    -406.3903   -7.9178899 
    6500    398.64844   -406.76111   -406.40041   -6.8644748 
    6600    164.58713   -406.58818   -406.43926     8.411056 
    6700    292.60159   -406.76363   -406.49888   -11.624251 
    6800    137.10565   -406.68409   -406.56003    2.3723887 
    6900    188.72962    -406.7717   -406.60094    11.861201 
    7000    171.29398   -406.75698   -406.60199   -19.049158 
    7100    271.33341   -406.78695   -406.54144    14.963072 
    7200    149.05006   -406.62096    -406.4861   -9.7126462 
    7300     343.5676   -406.74356    -406.4327    3.6801326 
    7400    334.09077   -406.71396   -406.41166    -11.92768 
    7500    307.45791   -406.67297   -406.39478    21.142505 
    7600    465.98693   -406.82625   -406.40461   -17.487142 
    7700    311.22745   -406.73766   -406.45606     11.51217 
    7800    332.65985   -406.76318   -406.46218    7.0776561 
    7900    348.46172   -406.81833   -406.50303  -0.69331228 
    8000    238.85898   -406.76453   -406.54841     -12.8776 
    8100    97.095694   -406.68482   -406.59697    35.871587 
    8200    305.82329   -406.84017   -406.56345   -35.517054 
    8300    128.55901   -406.74801   -406.63168    25.268331 
    8400    86.992956   -406.72483   -406.64612   -5.9751097 
    8500    292.84578   -406.85951   -406.59454   -11.094149 
    8600    414.67495   -406.84762   -406.47242    11.616463 
    8700     415.4353   -406.72468   -406.34879   0.55260235 
    8800    601.99669   -406.83837   -406.29367   -16.613413 
    8900    363.68403   -406.73165   -406.40258    19.690357 
    9000    257.16386   -406.69042   -406.45773   -30.062785 
    9100    306.23837   -406.75947   -406.48238    35.283653 
    9200    373.06858   -406.83153   -406.49397   -21.606889 
    9300    274.50521   -406.74841   -406.50003    23.338065 
    9400    297.61429   -406.78511   -406.51582   -11.302449 
    9500    243.21745   -406.74018   -406.52011     8.969394 
    9600    264.52378   -406.63744   -406.39809   -29.741823 
    9700    440.92001   -406.66046   -406.26151    49.740755 
    9800    599.39084   -406.67696   -406.13462   -30.289596 
    9900    542.64806   -406.60342   -406.11242    6.3744808 
   10000    386.79657   -406.53556   -406.18558    15.595725 
   10100    271.63941   -406.47269    -406.2269    3.5100232 
   10200    481.59612   -406.73277   -406.29701   -11.380671 
   10300    395.23644   -406.67161   -406.31399    -5.305797 
   10400    391.54334   -406.71361   -406.35933   0.71789019 
   10500    281.16792   -406.65608   -406.40167    3.9501003 
   10600    400.57559   -406.77117   -406.40872   -18.761677 
   10700    224.08671   -406.65415   -406.45139   -10.934935 
   10800    323.54598   -406.73429   -406.44154    43.819983 
   10900    160.93674   -406.57393   -406.42831   -53.927616 
   11000    268.64957   -406.67639   -406.43331    42.645496 
   11100    187.80329   -406.62806   -406.45813   -13.976127 
   11200    181.98504   -406.63067   -406.46601   0.40372303 
   11300     206.3113   -406.65499   -406.46832    7.4655447 
   11400    126.89049    -406.5764   -406.46158   -1.2448761 
   11500    498.34546   -406.81357   -406.36266   -14.575805 
   11600    213.23115   -406.42135   -406.22841    26.477498 
   11700     630.7774   -406.75635   -406.18561     -41.1776 
   11800    254.37805   -406.39001   -406.15985    4.1727156 
   11900    582.01551   -406.74065   -406.21403    22.692392 
   12000    166.06998   -406.53387    -406.3836   -49.433232 
   12100    301.96285   -406.72532   -406.45209    51.433293 
   12200    102.97645    -406.5578   -406.46462   -28.040857 
   12300    308.04312   -406.70928   -406.43055    21.867482 
   12400    141.74571   -406.54466    -406.4164   -7.6918339 
   12500    341.55856   -406.64016   -406.33111    25.002138 
   12600    344.91972   -406.55297   -406.24088   -39.517324 
   12700    414.33385   -406.53707   -406.16217    54.298482 
   12800    670.91862   -406.73604   -406.12898    -40.61322 
   12900    362.96934   -406.63184   -406.30342    6.0749064 
   13000    214.66688   -406.59296   -406.39872    16.616984 
   13100    231.54594   -406.64897   -406.43946   -19.416759 
   13200     280.6705   -406.70717   -406.45321   0.61733448 
   13300    198.49171   -406.65252   -406.47292   0.77164228 
   13400    192.22353   -406.68861   -406.51469   -5.3096116 
   13500    291.73855   -406.68362   -406.41965      2.63187 
   13600    167.05844   -406.48676    -406.3356   -5.9515546 
   13700    676.29696   -406.84897   -406.23705    18.946578 
   13800    186.59872   -406.31225   -406.14341   -68.424808 
   13900    423.58841   -406.51337    -406.1301    55.779609 
   14000    567.81816   -406.68724   -406.17347    10.891018 
   14100    326.26409   -406.64109   -406.34588   -72.969631 
   14200    147.71789   -406.56601   -406.43236    90.309016 
   14300    132.08323   -406.55358   -406.43406    -47.48769 
   14400    381.96734    -406.7836   -406.43798    20.743701 
   14500    328.55784   -406.68573   -406.38844    -1.364901 
   14600    148.45167   -406.47498   -406.34065   0.90175416 
   14700    468.84604    -406.7515   -406.32727    20.690738 
   14800    166.90634   -406.43624   -406.28522   -38.069977 
   14900    273.50696   -406.47764   -406.23016    52.783282 
   15000    612.45105   -406.70234   -406.14818   -10.020153 
   15100    458.54425   -406.60362   -406.18872   -62.532853 
   15200    232.13273   -406.54537   -406.33533     73.37566 
   15300     152.1005   -406.59525   -406.45762    -54.79314 
   15400    314.49075   -406.74716    -406.4626    27.598479 
   15500    319.80968   -406.72974   -406.44037   -10.316559 
   15600    207.82803   -406.59905     -406.411   -5.1423919 
   15700    514.28527   -406.81988   -406.35454    28.575478 
   15800    256.92755   -406.51918   -406.28671   -62.468322 
   15900    310.45797   -406.49182   -406.21091    76.657058 
   16000    623.90151   -406.66988   -406.10536   -40.433124 
   16100    376.25943   -406.40704   -406.06659   -17.362383 
   16200    239.63174   -406.47376   -406.25694    31.553394 
   16300    201.81848   -406.58787   -406.40526    7.6054052 
   16400    406.84488   -406.80374   -406.43562   -36.153464 
   16500    133.78297   -406.58574   -406.46469     38.04928 
   16600    182.40566   -406.59949   -406.43444   -23.670115 
   16700    402.85299   -406.68731    -406.3228    22.472971 
   16800    430.60153    -406.7517   -406.36208    -15.09496 
   16900    366.89776   -406.71736   -406.38538  -0.55680743 
   17000     437.7268   -406.81734   -406.42127    32.396913 
   17100    265.58146   -406.83602   -406.59572   -32.397336 
   17200    148.89354   -406.71661   -406.58189    9.9994022 
   17300    266.02246   -406.74674   -406.50604    15.349778 
   17400    147.06721   -406.63235   -406.49928   -32.290671 
   17500    341.26287    -406.7425   -406.43372    29.361063 
   17600    150.55066    -406.4718   -406.33558   -10.711974 
   17700    510.91843   -406.77661   -406.31432   -23.523681 
   17800    338.05572    -406.6332   -406.32732    38.934442 
   17900    381.55563   -406.66051   -406.31527   -34.208453 
   18000    217.31533   -406.55122   -406.35459    26.537966 
   18100    492.87646   -406.82668   -406.38071   -9.3374569 
   18200    236.29269   -406.62247   -406.40866   -20.456614 
   18300    302.07886   -406.71731   -406.44398     29.69083 
   18400    203.68238   -406.71438   -406.53009    -22.93846 
   18500    293.76968   -406.87633   -406.61052    1.4754858 
   18600    169.52971   -406.77328   -406.61988    13.884602 
   18700    157.27616   -406.69987   -406.55756   -27.372928 
   18800    250.24985   -406.71727   -406.49084    32.090991 
   18900    360.64677   -406.78612    -406.4598   -27.685706 
   19000    329.09563   -406.65201   -406.35424    3.0848542 
   19100    448.21223   -406.68288   -406.27733    13.118169 
   19200    330.25022   -406.65433   -406.35551   -25.629808 
   19300    326.13115   -406.61175   -406.31666     20.68805 
   19400    465.19139   -406.76078   -406.33986   -10.504258 
   19500    418.53332   -406.69006   -406.31136   -23.995523 
   19600    106.51383   -406.51692   -406.42054    42.759314 
   19700    231.88369    -406.6921   -406.48228   -32.655688 
   19800    187.25101    -406.6181   -406.44867  -0.36180366 
   19900    223.59759   -406.64536   -406.44304    41.734946 
   20000    301.62816     -406.687   -406.41408   -46.888981 
   20100    314.86916   -406.70212   -406.41722    14.125285 
   20200    272.57125    -406.5996   -406.35297    14.119188 
   20300    298.53081   -406.61177   -406.34165   -31.060955 
   20400    343.30071   -406.54724   -406.23661    2.0660781 
   20500    399.82873   -406.53134   -406.16956    45.059093 
   20600    630.59196   -406.59115   -406.02058   -42.314335 
   20700    456.79518   -406.66479   -406.25147    13.229301 
   20800    326.87172   -406.64645   -406.35069    9.0937788 
   20900    263.05123   -406.72106   -406.48304   0.23141987 
   21000    181.87547     -406.675   -406.51044   -4.1574223 
   21100    265.53992    -406.7092   -406.46893    9.9614427 
   21200    250.82251   -406.75476   -406.52781   -11.032221 
   21300    295.30089   -406.74788   -406.48069   -1.2838941 
   21400    280.06511   -406.71722   -406.46381    2.4828722 
   21500    283.12594   -406.64202   -406.38585    1.2234728 
   21600    448.48119   -406.65809    -406.2523   -14.516399 
   21700    483.11462   -406.65533    -406.2182    41.406178 
   21800    306.31161   -406.45575    -406.1786   -69.337881 
   21900    411.62629   -406.51952   -406.14708    61.074032 
   22000    506.31814   -406.77167   -406.31354   -12.403091 
   22100    301.64044   -406.63755   -406.36461   -36.082352 
   22200    316.50953   -406.66423   -406.37784    40.239679 
   22300    222.02298   -406.57831   -406.37742   -20.322669 
   22400    414.90511   -406.76309   -406.38767    10.046776 
   22500    209.62162   -406.58138   -406.39171   -12.479732 
   22600    225.35338   -406.60474   -406.40084    24.029759 
   22700    489.28354   -406.80617   -406.36346   -9.5994079 
   22800    201.06624   -406.55075   -406.36882   -28.361915 
   22900    214.44812   -406.56894    -406.3749     70.94798 
   23000    195.29317   -406.53881    -406.3621   -62.920007 
   23100    474.97097   -406.80152   -406.37176    21.733962 
   23200    477.72787   -406.84889   -406.41663    22.552687 
   23300    137.63307   -406.55989   -406.43535   -66.502038 
   23400    282.13563   -406.72896   -406.47367    74.642793 
   23500    196.55749   -406.68136   -406.50351   -54.287579 
   23600    259.39104   -406.74051   -406.50581   0.97877835 
   23700    184.99292   -406.62665   -406.45927    53.506878 
   23800    219.56345   -406.56837   -406.36971   -69.159985 
   23900    570.07129   -406.76238   -406.24656    32.654435 
   24000    284.87852   -406.42239   -406.16463    15.854631 
   24100      378.251   -406.50513   -406.16288   -21.288651 
   24200    662.92039   -406.77997   -406.18015    21.186791 
   24300    221.48394   -406.48084   -406.28044    -47.76305 
   24400     489.0612   -406.76851     -406.326    57.182907 
   24500    146.24795   -406.50714   -406.37481   -62.083552 
   24600    415.76327   -406.75275   -406.37656    31.139215 
   24700    367.12232   -406.69453   -406.36235    14.285755 
   24800    177.08235   -406.54611   -406.38588   -46.529909 
   24900    295.87229   -406.62893   -406.36121    59.335458 
   25000    177.13575   -406.53488   -406.37461   -24.103727 
   25100    399.38653   -406.71975   -406.35838   -17.088653 
   25200    204.51546   -406.58243   -406.39738    50.118302 
   25300    168.70672    -406.6096   -406.45695   -46.659151 
   25400    229.00934   -406.71983   -406.51262    27.703075 
   25500    245.53419    -406.7626   -406.54043   -6.1546623 
   25600    243.44945   -406.67465   -406.45437   -29.218094 
   25700    211.81339   -406.62703   -406.43538    58.437454 
   25800    277.43864   -406.60516   -406.35413   -63.797034 
   25900    296.55286   -406.44346   -406.17513    42.589613 
   26000    579.24668   -406.62633   -406.10222   0.12865994 
   26100    370.31236   -406.44543   -406.11037   -34.685972 
   26200    401.14831   -406.57164   -406.20867    53.979862 
   26300    373.41877   -406.59614   -406.25826   -18.530087 
   26400    291.58189   -406.55644   -406.29261   -22.032688 
   26500    290.88881   -406.64665   -406.38345    46.650784 
   26600    200.81609   -406.53612   -406.35441   -52.781951 
   26700    329.98055   -406.64302   -406.34444    34.685539 
   26800    307.41191   -406.67464   -406.39648   -2.6503074 
   26900    356.66059   -406.66658   -406.34386   -31.989422 
   27000    321.20247   -406.66866   -406.37803    47.421311 
   27100    356.70781    -406.6963   -406.37354    -41.01784 
   27200    261.61879   -406.66169   -406.42497   0.57215594 
   27300    286.01673   -406.73944   -406.48065    18.157662 
   27400    156.21284   -406.66879   -406.52745   -37.839408 
   27500    192.30926   -406.67135   -406.49735    36.076914 
   27600     102.3802   -406.51099   -406.41836   -13.748314 
   27700    417.19555   -406.70325   -406.32576   -17.729418 
   27800    192.34957   -406.36376   -406.18972    35.585902 
   27900    378.47709   -406.53411   -406.19166   -27.425039 
   28000    368.10542   -406.55965   -406.22658    6.8538706 
   28100     482.4428   -406.65425   -406.21772    5.4363242 
   28200    274.07939   -406.56511   -406.31711   -12.223639 
   28300    414.35525   -406.74276   -406.36784    24.064929 
   28400     316.4787     -406.668   -406.38165   -33.891543 
   28500    242.23862   -406.61583   -406.39664    6.8740034 
   28600    266.53017   -406.63523   -406.39407    36.323474 
   28700    262.29083    -406.6121   -406.37478   -51.576237 
   28800    299.67824   -406.64357   -406.37241    27.299175 
   28900    270.90965   -406.53839   -406.29327    17.327729 
   29000    202.76223   -406.48142   -406.29796   -30.111474 
   29100    443.24502   -406.61822   -406.21717    23.040741 
   29200    361.19352   -406.54559   -406.21877   -18.684397 
   29300    379.57928   -406.54532   -406.20187    17.866652 
   29400    519.58996   -406.74288   -406.27274   0.89086487 
   29500    314.15053   -406.63141   -406.34716    -44.12792 
   29600    146.04241   -406.55252   -406.42038    62.197639 
   29700    316.80084   -406.71948   -406.43283   -36.282292 
   29800    262.05125   -406.69337   -406.45626   -11.039469 
   29900    161.96643   -406.57299   -406.42644    38.169059 
   30000    274.57098   -406.58543   -406.33699   -33.728577 
   30100    490.13366   -406.71726   -406.27378    11.816451 
   30200     478.8689    -406.5618    -406.1285    13.630065 
   30300    446.53959   -406.41967   -406.01563   -39.056217 
   30400    551.09988   -406.50808   -406.00943    33.030742 
   30500    241.52853   -406.44906   -406.23052   -12.011482 
   30600    303.42807    -406.5478   -406.27325   0.38728928 
   30700    197.43131   -406.54137   -406.36273    9.4347229 
   30800    217.75311   -406.53088   -406.33385   -4.3173087 
   30900    206.34887   -406.53366   -406.34695    7.9677068 
   31000    384.75518   -406.74016   -406.39202    4.2156795 
   31100    228.87054    -406.5775   -406.37042   -7.4969002 
   31200    350.73538    -406.7042   -406.38684    4.2094363 
   31300    361.91231   -406.71614   -406.38868    21.369807 
   31400    276.98432   -406.66168   -406.41106   -39.974616 
   31500    134.17055   -406.55162   -406.43022    52.185882 
   31600    344.51147   -406.76369   -406.45197   -23.810398 
   31700    234.83884   -406.64892   -406.43643   -8.0936091 
   31800    288.05702   -406.66841   -406.40777    26.077069 
   31900    353.76276   -406.69685   -406.37676   -24.400795 
   32000    518.34633   -406.75985   -406.29084   -2.3031653 
   32100    467.89965     -406.726   -406.30264    10.450998 
   32200    365.92006   -406.74211   -406.41102   -20.709107 
   32300    285.99841   -406.64811   -406.38934    16.700751 
   32400    269.81013   -406.67827   -406.43414   -1.8894715 
   32500    210.41705   -406.67523   -406.48484    -9.615968 
   32600    229.69098   -406.70655   -406.49872    28.299907 
   32700    313.49734   -406.77927   -406.49561   -32.293507 
   32800    251.10755   -406.63879   -406.41158    11.708876 
   32900    317.40389   -406.52048   -406.23328   -1.4757353 
   33000    375.23919   -406.54547   -406.20595     5.431994 
   33100    458.37263   -406.57355   -406.15881   -19.397723 
   33200    433.64438   -406.55865   -406.16628    27.648522 
   33300    238.35121   -406.50461   -406.28895   -22.395479 
   33400     440.8125   -406.76549   -406.36663    17.206357 
   33500    353.55308   -406.70854   -406.38863   -7.9910165 
   33600     275.1962   -406.68785   -406.43884   -2.9935733 
   33700    241.70394   -406.64044   -406.42174    25.532485 
   33800    251.82995   -406.65688   -406.42902   -34.166519 
   33900    178.04371    -406.6392   -406.47811    37.182053 
   34000    364.91846   -406.67846   -406.34828   -13.431624 
   34100    177.13014   -406.38986   -406.22959   -18.944659 
   34200    545.37215    -406.6548   -406.16133    30.983683 
   34300    282.68677   -406.40806   -406.15228   -6.2125536 
   34400    624.39335   -406.69831   -406.13335   -17.799056 
   34500    356.74339   -406.52007   -406.19728    6.2446176 
   34600    285.21084   -406.64904   -406.39097   -4.4609093 
   34700    278.95812   -406.61337   -406.36097    12.443453 
   34800    389.48033   -406.75456   -406.40215   -16.654483 
   34900     454.8066   -406.84166   -406.43015    19.720978 
   35000    292.27043    -406.7077   -406.44325   -18.877567 
   35100    343.86543   -406.71992   -406.40879    9.8940851 
   35200    228.79094   -406.61708   -406.41006   -19.375314 
   35300    357.65137   -406.75068   -406.42707    10.689299 
   35400     312.6411   -406.66257   -406.37968   -10.866159 
   35500    344.73366   -406.72619   -406.41426   -4.3167966 
   35600    215.18492   -406.63529   -406.44058    21.268608 
   35700    368.76704   -406.79351   -406.45984   -17.575767 
   35800    182.64564   -406.58243   -406.41717    1.8451355 
   35900    386.67948   -406.64152   -406.29164    12.362785 
   36000     340.9114   -406.55064   -406.24218   -9.9440131 
   36100    362.20317   -406.51895   -406.19122    6.9152852 
   36200     524.8759   -406.70295   -406.22803   -10.296725 
   36300     258.6104   -406.42477   -406.19077   -9.5049912 
   36400    469.64604   -406.67696   -406.25202    19.032966 
   36500    246.97107    -406.5698   -406.34633    -22.47572 
   36600      305.274   -406.73755   -406.46133   -2.3298462 
   36700    123.91411   -406.61024   -406.49812    20.098874 
   36800    276.09178   -406.72191    -406.4721   -4.5814133 
   36900    305.86859     -406.682   -406.40524   -14.692465 
   37000    326.28515   -406.63301   -406.33778    17.890153 
   37100    358.51317   -406.65104   -406.32665  0.005457592 
   37200    448.70618    -406.6981    -406.2921   -8.5460586 
   37300    402.60425   -406.50229   -406.13801   -24.395275 
   37400    637.85522   -406.54251   -405.96536    45.037936 
   37500    550.24282   -406.57322   -406.07535   -51.460391 
   37600    344.94057   -406.56279   -406.25068    23.045768 
   37700     389.4214   -406.68097   -406.32861    8.7307777 
   37800     182.8647   -406.56947   -406.40401   -33.931651 
   37900    374.41225   -406.71708    -406.3783    54.673262 
   38000    206.27471   -406.61861   -406.43197    -26.03467 
   38100    522.57642   -406.85327   -406.38043    7.0586631 
   38200    133.79846   -406.54408   -406.42302    8.7158701 
   38300    300.38666   -406.73832   -406.46653   -18.686032 
   38400    189.78884   -406.64837   -406.47664     1.011212 
   38500    199.97485   -406.63119   -406.45025    21.529612 
   38600    290.60104   -406.68406   -406.42112   -30.167919 
   38700    353.41628   -406.65153   -406.33176    18.509921 
   38800    359.93553    -406.6869   -406.36122    3.0508996 
   38900    257.12627   -406.53655   -406.30389   -16.381832 
   39000    494.25758    -406.6823   -406.23508    15.102347 
   39100     228.2877   -406.55306    -406.3465   -21.257671 
   39200    284.93394    -406.6513   -406.39349    20.909342 
   39300    327.04334   -406.79267   -406.49676   -8.4864205 
   39400    254.98092   -406.67194   -406.44123   -22.966613 
   39500     162.0155    -406.6084    -406.4618    41.146012 
   39600    226.32198    -406.6102   -406.40542   -33.428706 
   39700    285.01628   -406.62501   -406.36712    10.353967 
   39800    397.80619   -406.60764    -406.2477    33.682302 
   39900     408.5164   -406.53617   -406.16653   -56.730129 
   40000    340.35921   -406.47538   -406.16741     46.50486 
   40100     509.2813   -406.67662   -406.21581   -17.816305 
   40200    279.45786    -406.5012   -406.24834   0.91077273 
   40300    474.34975   -406.72719   -406.29798    5.9967126 
   40400    140.39072   -406.48121   -406.35418   -3.1881679 
   40500    445.68968   -406.74415   -406.34088    1.6286559 
   40600     307.1794    -406.7136   -406.43566    4.9465748 
   40700    285.30233   -406.78488   -406.52673   -11.668694 
   40800    267.86256   -406.75438   -406.51201    23.061681 
   40900    226.95391   -406.69066   -406.48531   -27.385852 
   41000    323.59275   -406.74997   -406.45718    12.211911 
   41100    149.50721   -406.56399   -406.42871    3.1296276 
   41200    514.50766   -406.78706   -406.32152   -26.788239 
   41300    442.25878   -406.58721   -406.18704    27.690547 
   41400    394.51767   -406.48167   -406.12471   -9.6635923 
   41500    279.69924   -406.41379   -406.16071    14.055758 
   41600     531.3308   -406.72539   -406.24463    -17.17004 
   41700    158.45388   -406.46358   -406.32021     12.45153 
   41800    242.12496   -406.57387   -406.35479     15.24979 
   41900    312.38889   -406.63349   -406.35083    -16.98939 
   42000    288.86658   -406.63951   -406.37814     3.113596 
   42100    317.81954   -406.65984   -406.37227    16.502263 
   42200    242.45607   -406.64082   -406.42144   -33.013172 
   42300    403.89396   -406.74407   -406.37862    32.976046 
   42400    176.24954   -406.54058    -406.3811   -25.995256 
   42500     282.7564   -406.63611   -406.38026    16.637474 
   42600    423.84433   -406.72193   -406.33843    2.1487669 
   42700    367.56127   -406.73889   -406.40631   -21.296086 
   42800     216.1294   -406.59939   -406.40383    22.869148 
   42900    300.23552   -406.71563   -406.44397   -10.351866 
   43000    220.01648   -406.64638   -406.44731   -7.8251711 
   43100    242.72494   -406.70781   -406.48819    26.763104 
   43200     378.8171   -406.72211   -406.37935   -27.961916 
   43300    282.54405   -406.51355    -406.2579   0.56000839 
   43400    492.75412   -406.63006   -406.18421    36.908726 
   43500    314.73048   -406.44472   -406.15995   -52.738515 
   43600    474.05476   -406.72468   -406.29575    26.252502 
   43700    145.76287   -406.55701   -406.42512   -5.6731842 
   43800    288.69774   -406.70958   -406.44836   0.73942578 
   43900    325.92005   -406.73016   -406.43526   -1.9997375 
   44000    313.38595   -406.70906    -406.4255    3.0188178 
   44100    285.31004   -406.62892   -406.37077    10.810857 
   44200    358.41523   -406.65964   -406.33534   -18.729303 
   44300     418.8902   -406.67862    -406.2996    7.7785587 
   44400    370.15747    -406.6407   -406.30577    9.5621031 
   44500    316.24767   -406.56642   -406.28027   -31.912377 
   44600    365.59561   -406.66681   -406.33602    28.798139 
   44700    407.33879   -406.74855   -406.37998   -7.0411676 
   44800    303.53657   -406.71579   -406.44114   -30.581586 
   44900    113.55061   -406.56138   -406.45864    32.460005 
   45000     248.4175   -406.65868   -406.43391   -15.643871 
   45100    322.80464   -406.74368    -406.4516    -8.137642 
   45200     252.0995   -406.65036   -406.42226    19.907051 
   45300    416.22323   -406.73063   -406.35402   -4.2049393 
   45400    350.44862   -406.77234   -406.45524     -6.09169 
   45500    194.74015   -406.71742   -406.54122    12.470243 
   45600    196.23083   -406.75054   -406.57299   -19.510713 
   45700    120.26042   -406.72847   -406.61966    19.083646 
   45800    223.83601   -406.73907   -406.53654   -7.7845073 
   45900     197.3592   -406.67805   -406.49948   -4.0638679 
   46000     312.6845   -406.67304   -406.39012    10.599113 
   46100    220.31046   -406.52605   -406.32671  -0.29116094 
   46200    530.51344   -406.80821   -406.32819   -7.0534899 
   46300    370.32893   -406.64915   -406.31407    7.2813354 
   46400    318.00524   -406.64188   -406.35415    -1.672765 
   46500    355.85807   -406.64346   -406.32147   -5.9031201 
   46600    319.41415   -406.66931    -406.3803    7.7837711 
   46700    306.81393   -406.69344   -406.41582   -9.7314166 
   46800    293.33434   -406.73764   -406.47223   -3.2465796 
   46900    183.35322   -406.72439   -406.55849   -4.3082211 
   47000    203.60506   -406.74502   -406.56079     13.68705 
   47100    230.33971   -406.78753   -406.57911   -19.724839 
   47200    288.72144   -406.74568   -406.48444    16.589377 
   47300    225.86164   -406.61006   -406.40569   -12.932233 
   47400    522.70011   -406.73333   -406.26038    18.930748 
   47500     592.9804   -406.74606   -406.20952   -13.977364 
   47600    487.33512   -406.70982   -406.26887   -22.033422 
   47700    253.73873   -406.58525   -406.35567    49.739753 
   47800    212.04726   -406.51879   -406.32693   -38.648686 
   47900    373.28932   -406.74308   -406.40532    22.866613 
   48000    195.49742   -406.58597   -406.40908   -15.754747 
   48100    293.53345    -406.6138    -406.3482    15.943329 
   48200    322.87405   -406.70544    -406.4133   -1.0927335 
   48300    275.45493   -406.63668   -406.38744   -9.9650611 
   48400     140.9656   -406.61127   -406.48372    17.088908 
   48500    287.01874    -406.7699    -406.5102    2.0690318 
   48600    233.44528   -406.77903   -406.56781   -25.040303 
   48700     126.3523    -406.6887   -406.57437    36.998155 
   48800    189.40357   -406.66622   -406.49484   -37.861738 
   48900    354.85268    -406.7837   -406.46262    30.783204 
   49000    414.41242   -406.73148   -406.35651   -17.643836 
   49100    506.42002   -406.70869   -406.25047     -9.11216 
   49200    414.42666    -406.6415   -406.26652    43.949692 
   49300    322.31101   -406.59105   -406.29942    -72.50671 
   49400    346.25882   -406.60329   -406.28999    48.308446 
   49500    360.83962   -406.65118   -406.32469   -8.9288122 
   49600    308.53632   -406.62168   -406.34251   -29.945496 
   49700    168.87831   -406.51716   -406.36435    37.450247 
   49800    236.51252   -406.55973   -406.34573   -9.7423261 
   49900    291.29826   -406.71876   -406.45519   -24.089585 
   50000    212.44014   -406.66817   -406.47595     50.87208 
   50100    139.13208   -406.67962   -406.55373   -57.084878 
   50200    146.74888   -406.74933   -406.61655    46.050462 
   50300    231.73025    -406.7919   -406.58222   -22.864049 
   50400    190.81867    -406.6996   -406.52695   -3.6979025 
   50500    327.59461   -406.81366   -406.51724    20.336707 
   50600      220.421   -406.65162   -406.45218   -11.241611 
   50700    390.19158     -406.713   -406.35995  -0.72765501 
   50800    258.24551   -406.56705   -406.33338    26.118242 
   50900     359.1796   -406.58943   -406.26443   -41.590285 
   51000    393.30682   -406.69437    -406.3385    43.475959 
   51100    225.30453   -406.55141   -406.34755   -35.646297 
   51200    415.34985   -406.66436   -406.28854    29.529974 
   51300    204.42053   -406.55245   -406.36749   -20.764176 
   51400    231.84492   -406.68036   -406.47058   -2.5341772 
   51500    253.83759    -406.7395   -406.50982    21.219396 
   51600    235.02435   -406.73319   -406.52054   -30.983619 
   51700    213.04186   -406.69806    -406.5053    16.540435 
   51800    286.45689   -406.65506   -406.39587    14.696066 
   51900    396.79395   -406.62657   -406.26754   -29.686779 
   52000    238.68859   -406.42692   -406.21095    6.3819495 
   52100    492.58975   -406.64174   -406.19604    22.654601 
   52200    312.62463   -406.49815   -406.21528   -50.344057 
   52300    386.94259   -406.59166   -406.24155     38.06451 
   52400    210.75935   -406.45766   -406.26696   -21.234396 
   52500    378.26788   -406.70443   -406.36216    11.841591 
   52600    315.26982   -406.65753   -406.37226   -13.462305 
   52700    156.62002   -406.56805   -406.42634    2.5145755 
   52800    194.67482   -406.56601   -406.38987    23.317892 
   52900    320.16931   -406.69263   -406.40293   -24.963965 
   53000     257.2741   -406.58216   -406.34938    2.7184801 
   53100    230.36236   -406.56829   -406.35986    34.316785 
   53200    428.98168   -406.62406   -406.23591   -49.824117 
   53300    501.11599   -406.51947   -406.06605    26.667012 
   53400     444.6788   -406.45048   -406.04813   -13.477889 
   53500    356.75767   -406.35726   -406.03445   -4.5023413 
   53600    435.83633   -406.61401   -406.21966    26.809642 
   53700    304.14759   -406.56243   -406.28723   -40.068523 
   53800    311.88734   -406.66164   -406.37943     26.05677 
   53900     184.7524    -406.6078   -406.44063   -1.4973734 
   54000     349.4341   -406.76417   -406.44799   -19.119415 
   54100    246.12817   -406.66224   -406.43953    10.579951 
   54200    294.78576   -406.70764   -406.44091    5.6995903 
   54300    273.55966   -406.63692    -406.3894   -11.875455 
   54400    482.87084   -406.71776   -406.28085    5.6521733 
   54500    369.72286   -406.52238   -406.18785   -35.217894 
   54600    189.31826   -406.26771   -406.09641    83.845737 
   54700    533.66756   -406.60335   -406.12048   -50.050275 
   54800    447.84547    -406.6118   -406.20658   -3.2372823 
   54900    310.03584   -406.66287   -406.38234    13.445608 
   55000    206.13088   -406.62662   -406.44011 -0.045075747 
   55100    327.32229   -406.64866   -406.35249   -5.6059748 
   55200    416.69351   -406.73054   -406.35351    11.724997 
   55300      190.574   -406.48501   -406.31258   -19.978495 
   55400    513.54927   -406.79438   -406.32971    28.085153 
   55500    320.45532   -406.72468   -406.43473   -18.157903 
   55600    333.97002   -406.80897   -406.50679    2.5209532 
   55700    332.94799   -406.82818   -406.52692    17.210935 
   55800    168.69903   -406.71271   -406.56006   -32.959558 
   55900    120.69022    -406.6996   -406.59039    36.833266 
   56000    246.15857   -406.77274   -406.55001   -27.882886 
   56100    156.52651   -406.62708   -406.48545    8.1875526 
   56200    263.18208     -406.741   -406.50287    18.437577 
   56300    145.39466   -406.56047   -406.42891   -26.208397 
   56400    378.11738   -406.73335   -406.39122    8.9480513 
   56500    319.20166    -406.5942   -406.30538    14.454172 
   56600    361.79172   -406.60519   -406.27783   -40.327712 
   56700    301.95945   -406.53331   -406.26009    59.249205 
   56800    352.28699   -406.54411   -406.22536   -46.931504 
   56900    364.94491   -406.60925   -406.27904    19.258828 
   57000    230.58841    -406.6087   -406.40006   -3.9129457 
   57100    233.50886   -406.72779    -406.5165    1.2742078 
   57200    227.15492   -406.67884    -406.4733    2.0880954 
   57300    131.40373   -406.57717   -406.45827   -4.1008401 
   57400    384.35767   -406.74663   -406.39885    1.7875059 
   57500    317.92271   -406.56945   -406.28178    4.8318994 
   57600    365.32315   -406.57268   -406.24213   -28.509491 
   57700    230.76076   -406.46398   -406.25519    35.238199 
   57800    426.64811   -406.67861   -406.29257   -8.5590979 
   57900    348.59606   -406.70124   -406.38582   -14.460923 
   58000    244.80103   -406.71964   -406.49814    15.760423 
   58100    116.68682   -406.61553   -406.50995     -11.7289 
   58200    314.08632    -406.7605   -406.47631    16.397283 
   58300    248.41295   -406.66471   -406.43994   -27.479539 
   58400    257.25376   -406.65339   -406.42062    27.255371 
   58500    281.57534   -406.60486   -406.35008   -20.790393 
   58600     268.4063    -406.5212   -406.27834    21.762151 
   58700    487.57017   -406.65927   -406.21811   -23.376563 
   58800    343.71572   -406.51279   -406.20179    29.645136 
   58900    357.47712   -406.58156    -406.2581   -27.732788 
   59000    336.53089   -406.68163   -406.37713    5.6418038 
   59100    231.97895   -406.70654   -406.49664    16.263168 
   59200    246.36195   -406.72212    -406.4992   -23.452259 
   59300    234.66129   -406.70795   -406.49563    12.721292 
   59400     252.1497   -406.65337   -406.42522    8.3209996 
   59500    379.35669   -406.76147   -406.41822   -34.026916 
   59600    286.46314   -406.57909   -406.31989    28.665308 
   59700    490.84154   -406.63421   -406.19009    -4.576694 
   59800    378.57544   -406.49767   -406.15513   -21.903174 
   59900    647.44295   -406.73857   -406.15275    18.990879 
   60000    242.89868   -406.50024   -406.28046    -24.66611 
   60100    216.75789   -406.60996   -406.41383    25.495255 
   60200    200.10247   -406.66357   -406.48251   -7.9016615 
   60300      200.034   -406.64773   -406.46673   0.40973334 
   60400    303.57047   -406.73557   -406.46089   -5.2897648 
   60500    141.05816   -406.50533    -406.3777    9.0239978 
   60600    381.04926   -406.69401   -406.34922  -0.53287879 
   60700    277.67972   -406.48226   -406.23101   0.10318809 
   60800    495.08388   -406.64508   -406.19711   -19.896446 
   60900    194.45875    -406.2979   -406.12195    50.748781 
   61000    519.40353    -406.6835   -406.21353   -42.387927 
   61100    244.79407   -406.56751   -406.34601    10.561123 
   61200    200.09704   -406.59263   -406.41158    10.487563 
   61300    228.46279   -406.70481   -406.49809    -20.93663 
   61400    165.59968   -406.56258   -406.41274    21.833354 
   61500    237.64031   -406.58821   -406.37319   -14.988318 
   61600    272.00465   -406.57149   -406.32537    4.2232916 
   61700    337.88987    -406.5502   -406.24447    6.6869489 
   61800    503.66391   -406.60982    -406.1541   -6.8349432 
   61900    369.34218   -406.50557   -406.17138   -5.4022979 
   62000    543.43008   -406.73722   -406.24551    16.754433 
   62100     275.9285   -406.58101   -406.33134   -24.345989 
   62200    360.56472   -406.71456   -406.38832    22.186843 
   62300    229.71551    -406.6531   -406.44525   -16.052305 
   62400    345.09331   -406.69967   -406.38743    8.4161741 
   62500    325.65303   -406.68889   -406.39424   -8.9268707 
   62600    261.65396   -406.62273   -406.38598   -4.0527277 
   62700    316.87726   -406.71802    -406.4313    11.021527 
   62800    250.44573   -406.62533   -406.39872    4.1200401 
   62900    302.70768   -406.69151   -406.41761   -28.551399 
   63000    199.37386   -406.66617   -406.48577    44.394804 
   63100    289.10152   -406.66804   -406.40645    -40.23114 
   63200    240.11063   -406.60595   -406.38869    18.028067 
   63300    414.42338   -406.80428    -406.4293    2.4140203 
   63400    217.78677   -406.55463   -406.35758   -28.816281 
   63500    411.70819   -406.77703   -406.40451    40.016293 
   63600    204.05696   -406.55702   -406.37239   -42.834622 
   63700    382.73864   -406.65184   -406.30553    21.392285 
   63800    530.08292   -406.67908   -406.19945   -4.1895928 
   63900    293.62841   -406.46264   -406.19695   -43.305141 
   64000    261.76334   -406.37078   -406.13393    69.361831 
   64100     398.4254   -406.57304   -406.21253   -16.578638 
   64200    431.28101   -406.76393   -406.37369    -34.34995 
   64300     271.8223   -406.69479   -406.44884    59.873786 
   64400    193.15988   -406.62605   -406.45127   -56.203351 
   64500    342.07041   -406.74443   -406.43492    50.042297 
   64600     291.6671   -406.70975   -406.44585   -28.103095 
   64700    323.59081   -406.67659    -406.3838    -1.179608 
   64800     286.9345   -406.56406   -406.30443    36.579699 
   64900    283.61719   -406.46818   -406.21156   -46.074705 
   65000    575.84346   -406.58578   -406.06474    5.1116762 
   65100    679.33924   -406.65513   -406.04045    46.135043 
   65200      274.688   -406.47727   -406.22873   -70.238585 
   65300    357.62145    -406.6336   -406.31001     49.50023 
   65400    245.44049   -406.61393   -406.39185   -16.891303 
   65500    317.28065   -406.63711   -406.35003   -18.972291 
   65600    244.82286   -406.59404   -406.37252     43.00828 
   65700    191.83185   -406.52432   -406.35075   -44.593649 
   65800    311.76366   -406.71734   -406.43525    32.023278 
   65900    328.05938   -406.66399   -406.36715   -17.185349 
   66000    308.73666   -406.63247   -406.35312   -12.752143 
   66100    316.80171   -406.63832   -406.35168    11.033501 
   66200    307.22111   -406.67761   -406.39963   -1.7861108 
   66300    361.80987   -406.70145   -406.37408   -14.834562 
   66400    151.05305   -406.52486   -406.38819    17.903697 
   66500    309.25528   -406.67901   -406.39919    3.6777519 
   66600     224.1325   -406.58318   -406.38038   -14.417383 
   66700    234.21472   -406.64137   -406.42945    15.030798 
   66800     284.5291   -406.68755    -406.4301    17.386435 
   66900     368.6071   -406.71002    -406.3765   -43.806708 
   67000    288.20112    -406.6199   -406.35913    30.049169 
   67100    294.77554   -406.50018   -406.23346   -3.2868773 
   67200    468.68344   -406.63269   -406.20861   -6.1252463 
   67300    629.13695   -406.69167   -406.12241   -3.5473264 
   67400    339.77264   -406.47062   -406.16319   -36.375809 
   67500    284.43763   -406.56996   -406.31259    44.506396 
   67600      274.146   -406.66432   -406.41627   -12.463894 
   67700    263.48837   -406.69307   -406.45466   -12.177462 
   67800    292.84701   -406.69287    -406.4279    3.3853727 
   67900     171.5903   -406.59564   -406.44038    12.121288 
   68000    428.68781   -406.77152   -406.38363   -16.136486 
   68100    280.74294   -406.53667   -406.28265   -14.366988 
   68200    362.59444   -406.58246   -406.25438    16.063662 
   68300    469.04718   -406.59305   -406.16864    15.957191 
   68400    615.28531   -406.60551   -406.04879    -60.16313 
   68500    544.95439   -406.42105   -405.92796     17.19202 
   68600    384.15914   -406.30433   -405.95673    14.735724 
   68700     296.9865   -406.48061   -406.21189    5.6664071 
   68800    410.05468   -406.65124   -406.28021   -11.957969 
   68900    260.05261   -406.54851   -406.31321    7.3194698 
   69000    145.16006   -406.54157   -406.41023    25.027438 
   69100    417.15872   -406.77936    -406.4019   -12.015368 
   69200    199.51703   -406.55025   -406.36972    1.0526589 
   69300    275.09465   -406.63095   -406.38204    6.7656877 
   69400    264.22081     -406.683   -406.44393    5.1646576 
   69500    317.38402   -406.72365   -406.43647   -20.572002 
   69600    267.23751   -406.71608   -406.47428    6.0586918 
   69700     256.2466   -406.68535   -406.45349     4.050727 
   69800    280.67724   -406.69135   -406.43738   -11.740836 
   69900    230.83785    -406.6572   -406.44833    1.9285974 
   70000    238.40449   -406.58577   -406.37006   -8.4081338 
   70100    395.38778   -406.64733   -406.28957    23.228605 
   70200    437.44487    -406.5961   -406.20029   -20.876219 
   70300    327.21336   -406.46651   -406.17044   -22.686068 
   70400    278.76887    -406.3748   -406.12257    71.268575 
   70500    359.32462   -406.61567   -406.29055   -54.138388 
   70600    370.11274   -406.71952   -406.38464    4.3700237 
   70700    252.10802   -406.70026   -406.47215    7.2346355 
   70800    146.37186   -406.54921   -406.41677  -0.69334133 
   70900    425.94449   -406.82354   -406.43814    2.9574097 
   71000    196.72628   -406.55404   -406.37604   -28.600896 
   71100    245.87414   -406.58039   -406.35792    42.082265 
   71200    282.39692   -406.52601   -406.27049    7.7162154 
   71300    482.53433   -406.65481    -406.2182   -44.454504 
   71400    511.75127   -406.58311   -406.12007     35.80256 
   71500    405.89398   -406.40582   -406.03856   -21.102224 
   71600    393.15659   -406.42606   -406.07032    25.313139 
   71700     556.1887   -406.73702   -406.23377    12.388936 
   71800    292.15298   -406.63858   -406.37423   -61.859239 
   71900    188.82229   -406.58827   -406.41742    52.867427 
   72000    242.61192   -406.66882    -406.4493   -8.9676903 
   72100    277.68305   -406.69143   -406.44017   -15.988438 
   72200    337.32559   -406.72606   -406.42084    6.2023844 
   72300     76.65847   -406.41607   -406.34671    5.5841679 
   72400    381.68217   -406.65481   -406.30946    13.048315 
   72500    380.85776    -406.4981   -406.15349   -22.929257 
   72600    442.92058   -406.51608   -406.11531    -13.08161 
   72700    405.93994   -406.41479   -406.04749    82.074067 
   72800    311.18249   -406.53231   -406.25075   -80.176185 
   72900     371.2679   -406.68204   -406.34611     23.40203 
   73000    275.74474   -406.60328   -406.35378    18.998278 
   73100    247.77334    -406.6302   -406.40601   -40.969665 
   73200    426.27978   -406.75965   -406.37394     31.37404 
   73300    233.62702   -406.54985   -406.33846    -21.39953 
   73400    271.28581   -406.61545   -406.36999    9.4924267 
   73500    408.40673   -406.71089   -406.34135    13.639121 
   73600    159.53858   -406.38321   -406.23886   -43.542226 
   73700    435.02202   -406.68832    -406.2947    56.062247 
   73800     361.2618   -406.51663   -406.18976   -24.572696 
   73900    435.16712   -406.62489   -406.23115   -38.583343 
   74000    351.24069   -406.56809   -406.25028    63.628217 
   74100    134.55851    -406.4614   -406.33965   -40.412105 
   74200    377.02062    -406.6931   -406.35197    21.259921 
   74300    240.57471   -406.67302   -406.45534    -17.20906 
   74400    332.29809   -406.75242   -406.45175  -0.52477435 
   74500    269.95134   -406.64649   -406.40223    25.198079 
   74600     332.8945   -406.66117   -406.35996   -39.535806 
   74700    297.88145   -406.54094   -406.27141    19.241534 
   74800    440.70327   -406.71058   -406.31182    35.713617 
   74900    357.76672   -406.36266   -406.03894   -76.871381 
   75000    512.74275   -406.45223   -405.98829    52.546094 
   75100    329.51775   -406.28934   -405.99118   -10.015448 
   75200    404.73314   -406.44429   -406.07808    14.529587 
   75300    272.92171   -406.45783   -406.21088   -5.4736045 
   75400    401.97672   -406.63964   -406.27593   -16.741959 
   75500    226.35258   -406.52671   -406.32191    25.632395 
   75600    368.57116   -406.76559    -406.4321   -25.202221 
   75700    227.01808   -406.59362   -406.38821    8.4512459 
   75800    412.82452   -406.80957   -406.43604    3.1517987 
   75900    300.40803   -406.70565   -406.43384   -20.365505 
   76000    301.89701    -406.6762   -406.40303    13.543347 
   76100     350.5287   -406.70085   -406.38368   -4.7208649 
   76200    297.27289   -406.69601   -406.42703   -16.766753 
   76300    271.45582   -406.75009   -406.50447    20.415326 
   76400    175.15485   -406.71856   -406.56008   -17.545625 
   76500    257.96827    -406.6897   -406.45629     23.66186 
   76600    254.42713   -406.71792   -406.48771   -24.053488 
   76700    224.59584   -406.65328   -406.45006     11.99638 
   76800    317.51091   -406.65099    -406.3637    6.4662632 
   76900    311.03265    -406.5904   -406.30897   -13.051186 
   77000    501.03146   -406.65839   -406.20505    20.909699 
   77100    383.15659   -406.65333   -406.30664    8.8098046 
   77200    334.72023   -406.68134   -406.37848   -26.763279 
   77300    264.98963    -406.6981   -406.45833    31.493295 
   77400    247.17179   -406.63064     -406.407   -25.437316 
   77500      264.911   -406.68669     -406.447     17.75017 
   77600    264.35978   -406.62907   -406.38987   -22.214908 
   77700    254.20927   -406.58962    -406.3596     22.39437 
   77800    379.73914   -406.66638   -406.32279   -11.975089 
   77900     330.6062   -406.54989   -406.25075    4.2850236 
   78000    438.73575    -406.6426   -406.24562    3.4376177 
   78100     185.6107   -406.51132   -406.34337   -8.3168549 
   78200    296.30867   -406.72807   -406.45996    14.223154 
   78300      147.228   -406.62893   -406.49572   -17.378249 
   78400    240.89457   -406.77382   -406.55585    15.512592 
   78500    207.18809   -406.69329   -406.50582   -9.3517674 
   78600    314.63671   -406.67591   -406.39122   0.49580351 
   78700    354.34936   -406.65202    -406.3314   -4.2699351 
   78800    393.15276   -406.60129   -406.24556     13.60733 
   78900    502.59888    -406.7016   -406.24684   -10.152704 
   79000    301.20977   -406.48566   -406.21312   -5.4691121 
   79100    364.62047   -406.65063   -406.32072    22.998836 
   79200    254.76779    -406.5224   -406.29188   -8.3142418 
   79300    395.78092   -406.67103   -406.31292   -23.162883 
   79400    212.81518    -406.4855   -406.29294    38.157657 
   79500    340.68633   -406.71593   -406.40767   -33.010063 
   79600    228.97784   -406.58439   -406.37721    10.545244 
   79700    262.84157   -406.71733   -406.47951    7.0933424 
   79800     166.3053   -406.62041   -406.46994   -19.519577 
   79900    191.27151   -406.64799   -406.47493    23.489238 
   80000    149.18066    -406.6787   -406.54372   -16.139865 
   80100    309.78172   -406.84086   -406.56056    1.7434627 
   80200    126.12292    -406.6715   -406.55738    6.1402904 
   80300      305.995   -406.80101   -406.52414   -17.411401 
   80400    153.18523   -406.50577   -406.36717    17.107207 
   80500    513.85423   -406.73294   -406.26799   -12.007923 
   80600    274.93645   -406.44414   -406.19537   -30.251933 
   80700    388.81849   -406.53361    -406.1818    56.905515 
   80800    233.34631   -406.45268   -406.24154   -39.050981 
   80900    476.04625   -406.76639   -406.33566    19.696067 
   81000    174.03389   -406.51875   -406.36128    2.5955616 
   81100     241.3837   -406.61084   -406.39243   -6.8635337 
   81200    364.75353   -406.78535   -406.45532    7.7678967 
   81300    227.92321    -406.6301   -406.42387   -10.455682 
   81400    319.82204   -406.70981   -406.42042    13.199812 
   81500    334.66949   -406.66647   -406.36365   -5.1724386 
   81600    297.08905   -406.58837   -406.31956   -3.1177845 
   81700    195.51092   -406.51165   -406.33475    9.8564886 
   81800     359.3726   -406.67272   -406.34755    2.1246285 
   81900    295.27526   -406.54422   -406.27705   -15.460732 
   82000     329.7863   -406.60392   -406.30552    26.294081 
   82100    288.47118   -406.51589   -406.25488   -24.924415 
   82200    324.22443   -406.54837     -406.255    26.081811 
   82300    376.60924   -406.69377   -406.35301   -16.024909 
   82400    350.10919   -406.72384   -406.40706   -3.3127881 
   82500    255.74548   -406.67385   -406.44244     8.710032 
   82600    261.07578   -406.62272   -406.38649    2.0556607 
   82700    214.78515    -406.5899   -406.39556   -14.651654 
   82800    255.31345   -406.66271    -406.4317    22.593108 
   82900    216.93669   -406.56658   -406.37029   -13.271839 
   83000    437.56366   -406.71044   -406.31452   -6.1781481 
   83100    326.19768    -406.4423   -406.14715    17.370496 
   83200    463.58122   -406.58611   -406.16665    -19.95669 
   83300    388.45151   -406.41427   -406.06279    19.905246 
   83400    362.74479   -406.46136   -406.13314   -32.398378 
   83500    275.46922   -406.52449   -406.27524     29.07634 
   83600    322.38729   -406.72236   -406.43066   -1.0197341 
   83700    238.79744   -406.58418   -406.36811    -27.54545 
   83800    230.92641   -406.53353   -406.32458    35.379692 
   83900    428.15217   -406.69905   -406.31165    -19.69418 
   84000    277.56974   -406.58947   -406.33832    -15.62797 
   84100    483.18962   -406.76447   -406.32727    38.214322 
   84200    181.54383   -406.48804   -406.32378   -55.283323 
   84300     250.5011   -406.55828   -406.33163    56.160671 
   84400    313.15536   -406.74448   -406.46113   -24.333758 
   84500    191.43362   -406.63974   -406.46652   -21.450468 
   84600    181.47402   -406.71065   -406.54645    46.887634 
   84700    189.45288   -406.65737   -406.48595   -38.236725 
   84800    236.29721   -406.72373   -406.50993    9.2661449 
   84900    315.73432   -406.66797   -406.38228    28.649992 
   85000    316.49674   -406.58953   -406.30316    -49.61445 
   85100    383.48315   -406.49054   -406.14356    44.557632 
   85200     329.4467   -406.48387   -406.18578   -18.863833 
   85300    341.72436   -406.54882   -406.23962     12.95616 
   85400    442.10297   -406.65397   -406.25394    6.6590944 
   85500    199.66001   -406.47556   -406.29491   -35.112716 
   85600    272.93419   -406.61349   -406.36653    42.896801 
   85700    279.16991   -406.58004   -406.32744   -21.160379 
   85800    328.07539   -406.63294   -406.33609   -18.492618 
   85900    289.38965   -406.65672   -406.39488    44.869912 
   86000    146.20974   -406.55342   -406.42113   -42.742593 
   86100    420.94906   -406.72389   -406.34301    18.131638 
   86200    319.11333   -406.62388   -406.33514    24.406248 
   86300    222.86859   -406.48137   -406.27972   -54.658333 
   86400    363.17656   -406.60966   -406.28105    58.490545 
   86500    572.69059   -406.76338    -406.2452   -24.876971 
   86600    375.87331   -406.55044   -406.21034   -29.303101 
   86700    295.67527   -406.57675   -406.30922    54.858516 
   86800    220.02017   -406.54539   -406.34632   -44.678928 
   86900    324.85605   -406.76632   -406.47238    9.5806221 
   87000    327.57934   -406.78054   -406.48414    27.198946 
   87100    136.42686   -406.59201   -406.46856    -53.08603 
   87200    232.10123   -406.57858   -406.36857    52.628687 
   87300    392.75032   -406.66965   -406.31428   -25.217707 
   87400    337.77893    -406.4245   -406.11887   -21.201921 
   87500     367.6935   -406.32737   -405.99468    45.094376 
   87600    291.08382   -406.38933   -406.12595   -7.7456471 
   87700    565.60057   -406.66184   -406.15007   -18.606688 
   87800    355.47736   -406.61583   -406.29419    9.0675505 
   87900    265.08513   -406.60712   -406.36727   -2.2849029 
   88000     410.0248   -406.75321   -406.38222    26.878932 
   88100    317.11951   -406.57846   -406.29152   -47.173502 
   88200     262.5284   -406.60998   -406.37243    35.955276 
   88300    360.17733   -406.67837   -406.35248    2.1931588 
   88400    279.62064   -406.64592   -406.39292    -41.03568 
   88500    181.40386   -406.63183   -406.46769    35.974155 
   88600    260.58538   -406.79709   -406.56131   -6.4252975 
   88700    196.19033   -406.75781   -406.58029   -23.929412 
   88800    221.47835   -406.78327   -406.58287    30.831023 
   88900    95.218421   -406.61478   -406.52863   -21.562449 
   89000    388.71103   -406.80658   -406.45487     7.206612 
   89100    265.31704   -406.56611   -406.32604   0.77162617 
   89200    296.73872   -406.59725   -406.32876   -11.768308 
   89300    402.69175   -406.68378   -406.31942    26.715382 
   89400    346.52978   -406.58752   -406.27397   -47.423409 
   89500    267.34778   -406.51288   -406.27098     35.82618 
   89600    341.04984   -406.69369    -406.3851   -4.1611321 
   89700    192.09942   -406.61333   -406.43952   -29.877371 
   89800    227.06547   -406.68324   -406.47779    38.692108 
   89900    157.66199   -406.65963   -406.51697   -23.864143 
   90000    255.11173   -406.73528   -406.50445    2.3790688 
   90100    193.15518     -406.716   -406.54123    14.017668 
   90200    155.86114    -406.7049   -406.56387   -23.945091 
   90300    236.92922   -406.67277   -406.45839    29.265591 
   90400    219.95993   -406.58584   -406.38681   -32.559762 
   90500    301.57573   -406.56503   -406.29216    27.062136 
   90600    512.26125   -406.69371   -406.23021   0.43108554 
   90700    429.92878   -406.62182   -406.23281   -38.412398 
   90800    364.54752   -406.59154   -406.26169    28.465759 
   90900    295.84344   -406.54971   -406.28203   -7.9522139 
   91000    256.13015   -406.65257   -406.42082   -6.1514706 
   91100    275.50549   -406.65066   -406.40137     12.61135 
   91200    128.67482   -406.54501   -406.42858   -9.3172082 
   91300    329.24594   -406.75413   -406.45622    15.187498 
   91400    327.59141   -406.74235   -406.44594   -17.443805 
   91500    286.56721   -406.70104   -406.44175   -3.0030195 
   91600    318.92017   -406.61982   -406.33126    23.768484 
   91700    335.65459   -406.59816   -406.29445   -28.039593 
   91800    434.29929   -406.77467   -406.38171   -5.1046436 
   91900    215.00687   -406.46637   -406.27183    36.639679 
   92000     284.3203   -406.55585   -406.29859   -39.592315 
   92100    240.08945   -406.56554   -406.34831    26.120062 
   92200    209.52566   -406.72831   -406.53873    -0.370507 
   92300    135.50839   -406.64381    -406.5212    -4.002215 
   92400    201.07601   -406.68051   -406.49857    3.0304179 
   92500    126.15439   -406.62089   -406.50674   -2.5628094 
   92600    292.26142   -406.69957   -406.43513      10.4103 
   92700     213.2259   -406.50061   -406.30768   -15.504938 
   92800    375.98392   -406.69269   -406.35249    6.9762326 
   92900    337.33331   -406.57041   -406.26518    18.145182 
   93000    434.04238   -406.66509   -406.27236   -49.971129 
   93100    263.73326   -406.51902   -406.28039    37.717853 
   93200    518.96834   -406.70819   -406.23862   -14.114969 
   93300    282.06157   -406.55717   -406.30195    -24.27389 
   93400    427.92328   -406.64922   -406.26202     35.75098 
   93500    276.91105   -406.53965   -406.28909   -27.765695 
   93600    339.34104   -406.70854    -406.4015    4.1761928 
   93700    248.11115   -406.65194   -406.42745    11.423015 
   93800    322.37104   -406.65725   -406.36556   -17.137281 
   93900    296.85994   -406.69394   -406.42534    8.3773359 
   94000    186.35626   -406.74643   -406.57781   -3.3929426 
   94100    195.42004   -406.72056   -406.54374   -3.1466176 
   94200      151.158   -406.70607    -406.5693    10.262122 
   94300    219.09083   -406.70994    -406.5117   -16.328487 
   94400     168.9973   -406.56437   -406.41146    25.062823 
   94500    421.42905   -406.72384   -406.34252   -20.484038 
   94600    292.52381   -406.58802   -406.32334    3.4693888 
   94700    334.27995   -406.55013   -406.24767    27.106507 
   94800    308.11991   -406.58321   -406.30441   -28.586081 
   94900    308.39013   -406.55009   -406.27105    8.5113722 
   95000    192.74169   -406.54984   -406.37544    20.965603 
   95100    261.23278    -406.6247   -406.38834   -20.805503 
   95200    266.18691   -406.72666   -406.48581   0.98698977 
   95300    144.95022   -406.66082   -406.52967    15.396886 
   95400     252.9365   -406.77415   -406.54529   -14.670069 
   95500    155.16481   -406.74436   -406.60396      3.55239 
   95600    107.03497   -406.78793   -406.69108    1.1795477 
   95700    205.83618   -406.83463   -406.64839   0.91908603 
   95800    183.04509   -406.71373   -406.54811   -9.3032856 
   95900    241.58022     -406.699   -406.48041    8.5460089 
   96000     276.8965   -406.70857   -406.45803    1.7120032 
   96100    488.24912   -406.79846   -406.35669   -12.766844 
   96200    276.48479   -406.57658   -406.32641   -2.7282595 
   96300    457.66778   -406.76204   -406.34793    16.802366 
   96400     243.9628   -406.62955   -406.40881   -16.221249 
   96500     374.8794    -406.7048    -406.3656    4.4114971 
   96600    178.56227   -406.61847   -406.45691    11.732534 
   96700    279.65196   -406.74952   -406.49648   -21.874686 
   96800    176.09948   -406.64032   -406.48098    22.847829 
   96900    257.08025   -406.73107   -406.49846    -10.19913 
   97000    228.90935   -406.69157   -406.48445   -18.255704 
   97100    308.26412    -406.7554   -406.47648    38.220774 
   97200    215.01509    -406.5002   -406.30565   -38.272284 
   97300    298.23726   -406.56779   -406.29794    25.281563 
   97400    402.79728   -406.51014   -406.14568    25.993609 
   97500    272.49478   -406.43384   -406.18728   -51.111998 
   97600    437.53885   -406.69638   -406.30048    37.624346 
   97700    172.71224   -406.59942   -406.44315   -10.302298 
   97800    402.81648   -406.73711   -406.37264   -4.6014634 
   97900     291.2849   -406.69611   -406.43255  -0.17451726 
   98000    362.65602    -406.7673   -406.43916    12.578742 
   98100    237.29831   -406.68481    -406.4701   -10.712968 
   98200    370.92586   -406.70781   -406.37219   -2.1162521 
   98300    234.38155   -406.61555   -406.40347    11.650295 
   98400    316.33907   -406.66903    -406.3828   -16.914844 
   98500    361.27284   -406.60167   -406.27479   0.41064298 
   98600    206.60176   -406.51567   -406.32873    21.200181 
   98700    458.81991   -406.57178   -406.15663   -16.327467 
   98800    439.43723    -406.5617   -406.16409   -1.0061494 
   98900    320.48812   -406.49117   -406.20119   -10.927615 
   99000    248.64469   -406.54377    -406.3188    26.478355 
   99100    402.38679    -406.7666   -406.40252   -9.3757737 
   99200    234.32782   -406.66339   -406.45136   -28.047552 
   99300    236.03084    -406.6682   -406.45463    38.952707 
   99400    293.64464   -406.70407   -406.43837   -20.376972 
   99500       315.08   -406.69524   -406.41015   -7.5872821 
   99600    400.54381   -406.70965   -406.34723    19.112969 
   99700    127.62257    -406.4117   -406.29623    -14.61593 
   99800    603.54228   -406.62887   -406.08277    17.964703 
   99900     351.5705   -406.27363   -405.95553   -21.466881 
  100000    652.29305   -406.49547   -405.90526    2.7236566 
  100100    498.71477   -406.57533   -406.12408    23.595441 
  100200    438.53162   -406.57914   -406.18235     -41.3206 
  100300     340.0618   -406.59305   -406.28536    33.609839 
  100400    257.19249   -406.55614   -406.32343   -16.828373 
  100500    351.06594   -406.66181   -406.34416    4.6678894 
  100600    267.23155   -406.60791   -406.36611    3.6747973 
  100700    301.17797   -406.69301    -406.4205   -6.6751238 
  100800    312.68018   -406.73793   -406.45501    4.7277513 
  100900    183.12494    -406.6101   -406.44441    2.3293402 
  101000    171.71699   -406.64861   -406.49323  -0.14440026 
  101100    287.78275     -406.721   -406.46061    2.5428991 
  101200    138.45562   -406.64596   -406.52068   -9.9586234 
  101300    349.00834   -406.75599    -406.4402    16.587355 
  101400    248.24934   -406.61809   -406.39347   -6.6840141 
  101500    420.16473   -406.68666   -406.30648    6.1399815 
  101600    467.45979   -406.69307    -406.2701   -1.0689584 
  101700    448.24931   -406.74358   -406.33799   -7.2654548 
  101800    297.42893   -406.71648   -406.44736    18.370071 
  101900    242.95413   -406.68897   -406.46914   -17.445316 
  102000    348.17486   -406.82949   -406.51446    4.2000318 
  102100    248.82024    -406.7392   -406.51407  -0.41604888 
  102200     275.3171   -406.67882   -406.42971    -3.561813 
  102300    296.38254   -406.73549   -406.46732    2.4696878 
  102400    285.03466    -406.6487    -406.3908   -8.1047354 
  102500    194.31955     -406.467   -406.29117     22.05067 
  102600    507.81154   -406.69545   -406.23597    3.4672388 
  102700    318.49812   -406.34907   -406.06088   -44.886359 
  102800    656.39966   -406.45077   -405.85684    51.413993 
  102900    412.41407   -406.27227   -405.89911   -8.3870524 
  103000    499.14389   -406.50772   -406.05608   -8.4334581 
  103100    480.96828   -406.64521   -406.21002   -7.6630688 
  103200     229.7687   -406.46004   -406.25214  -0.24324335 
  103300    414.24658   -406.71824   -406.34343    19.626751 
  103400    348.97736   -406.65739   -406.34163   -20.877027 
  103500    333.77845   -406.74459   -406.44258   -4.6342841 
  103600    253.67005   -406.67461   -406.44509    27.001241 
  103700    256.43119   -406.67773   -406.44571   -18.138763 
  103800    252.67789   -406.65778   -406.42915   -2.9190805 
  103900    200.75307   -406.60733   -406.42568    23.357475 
  104000    248.03291    -406.5451   -406.32068   -14.665263 
  104100    445.29847   -406.59847   -406.19555    17.662977 
  104200    368.34627   -406.45949    -406.1262   -41.597485 
  104300    375.43663   -406.47725   -406.13755    17.287473 
  104400    200.50198   -406.40028   -406.21886    37.895317 
  104500    273.19198   -406.58462   -406.33743   -27.317533 
  104600    419.21178   -406.77323   -406.39392    -10.81833 
  104700     291.6924   -406.62553    -406.3616    18.886019 
  104800    133.72035   -406.51983   -406.39884   -15.143789 
  104900    343.88094   -406.71668   -406.40553    35.981693 
  105000    282.18946   -406.64018   -406.38485   -42.266306 
  105100     400.6024   -406.73323   -406.37076  -0.34745212 
  105200    182.59735   -406.48324   -406.31802    38.041083 
  105300    317.12226   -406.56106   -406.27412   -30.828632 
  105400    666.47712   -406.77898   -406.17594    2.6796807 
  105500    660.23319   -406.71773   -406.12034   -25.184344 
  105600    428.70072   -406.53362   -406.14573   -21.708856 
  105700    280.73201    -406.4646   -406.21059    56.645241 
  105800    342.02896   -406.68343   -406.37395   -28.044383 
  105900     415.1202   -406.77163   -406.39602   -19.127196 
  106000    299.59696   -406.60094   -406.32986    20.806602 
  106100    236.97576    -406.6549   -406.44048   -9.9112172 
  106200    392.72747   -406.77353   -406.41818    11.325935 
  106300    138.98831   -406.54262   -406.41686    -14.16973 
  106400    207.12671   -406.57296   -406.38555     23.15838 
  106500    195.15148   -406.63517   -406.45859   -16.089693 
  106600    254.31325   -406.66748   -406.43737    13.538295 
  106700    253.61771   -406.65895   -406.42947   -3.5014506 
  106800    150.68846   -406.45209   -406.31574  -0.67063024 
  106900    402.64048    -406.6653   -406.30098    3.9308953 
  107000    321.08767    -406.4978   -406.20727    1.0072456 
  107100    460.98319   -406.60348   -406.18637    4.9739315 
  107200    300.48534   -406.59193   -406.32004   -5.2934159 
  107300    243.64764   -406.59189   -406.37143   -8.0391266 
  107400    250.94619   -406.68613   -406.45907    11.576301 
  107500    287.93255   -406.70332    -406.4428    -4.924215 
  107600    321.02792    -406.7358   -406.44533   -18.304518 
  107700    256.70113   -406.67454   -406.44227    18.490266 
  107800    206.90267   -406.62803   -406.44082   -7.3315763 
  107900    293.23391   -406.64793   -406.38261   -2.9953703 
  108000    271.57357   -406.55921   -406.31349   0.75921718 
  108100    377.38671   -406.72988   -406.38841    12.847539 
  108200    253.74209   -406.53031   -406.30072   -15.933241 
  108300    337.61309   -406.61092   -406.30544    5.1003013 
  108400    238.76435   -406.57066   -406.35462    4.3184785 
  108500    427.46005   -406.71781   -406.33103   -6.7104094 
  108600    258.45894   -406.58874   -406.35488    -7.958592 
  108700    311.02193   -406.69268   -406.41126    16.422726 
  108800    244.67705    -406.7361   -406.51471   -11.558968 
  108900    192.75781   -406.68415   -406.50974   -5.3914378 
  109000    220.87492   -406.80426    -406.6044    12.882909 
  109100    201.93143   -406.73782   -406.55511    -16.12599 
  109200    255.14352   -406.69906    -406.4682    10.865245 
  109300    359.31328   -406.71775   -406.39264   -4.6400654 
  109400    268.58386   -406.46279   -406.21977   0.87145345 
  109500    430.57803   -406.66465   -406.27505  -0.69574119 
  109600    240.60227   -406.46553   -406.24783    -7.592545 
  109700    309.39684    -406.5476   -406.26766    10.627567 
  109800    298.72225   -406.64729     -406.377    11.004136 
  109900    191.53492   -406.53147   -406.35817   -23.689194 
  110000    218.42394   -406.56941   -406.37177    28.812059 
  110100    154.29522   -406.56169   -406.42208   -9.7675414 
  110200    237.50781    -406.7099   -406.49499    -5.676461 
  110300    96.157295   -406.61782   -406.53081    20.257449 
  110400    216.44163   -406.68834    -406.4925   -11.743206 
  110500    130.41156   -406.64569   -406.52769     2.347485 
  110600    244.09136   -406.75577   -406.53491    12.693335 
  110700    222.28403   -406.58591   -406.38478    -21.94338 
  110800    476.66989   -406.73138   -406.30008    13.408001 
  110900    222.74154   -406.48112   -406.27958    3.9616715 
  111000    455.18617   -406.62802   -406.21616   -21.268471 
  111100      375.682   -406.59944   -406.25952    13.659862 
  111200    284.11263   -406.53314   -406.27607   -16.319699 
  111300    264.54814     -406.594   -406.35463    31.427095 
  111400    254.97686   -406.64583   -406.41512   -27.880883 
  111500    249.71271   -406.67218   -406.44624    8.8345627 
  111600    208.03819    -406.6507   -406.46247    7.1500666 
  111700    167.81669   -406.62841   -406.47656   -23.201269 
  111800    378.41158   -406.56968   -406.22729    29.778995 
  111900    415.88562   -406.41444   -406.03814   -13.862663 
  112000    431.45428   -406.46104   -406.07065   -12.168978 
  112100    348.13126   -406.55644   -406.24144    18.412981 
  112200    154.39112   -406.40817   -406.26847   -9.2519881 
  112300     355.9008   -406.68024   -406.35822    17.737163 
  112400    226.80042   -406.58816   -406.38295   -19.887293 
  112500     325.5815   -406.76165   -406.46706    4.2828408 
  112600    184.41649   -406.59987     -406.433    5.0905295 
  112700    286.19694   -406.68948   -406.43052   -12.159955 
  112800    245.84727   -406.63243   -406.40998   -6.5596497 
  112900    422.32757   -406.65454   -406.27241    42.066284 
  113000    305.36807   -406.36644   -406.09014   -46.443641 
  113100    631.63302   -406.67744   -406.10592    4.3310765 
  113200    531.33616   -406.56651   -406.08574    20.793917 
  113300    238.32204   -406.48686   -406.27122   -21.249819 
  113400    349.73602   -406.62546   -406.30901    18.587814 
  113500    240.66482   -406.59544   -406.37768   -14.809527 
  113600    284.75808   -406.58781   -406.33015    10.999847 
  113700    322.18949   -406.72425   -406.43273    5.3454572 
  113800    312.68076   -406.61816   -406.33524   -26.987445 
  113900    268.45174   -406.60373   -406.36083    21.833337 
  114000    200.87941   -406.63596    -406.4542    10.679024 
  114100    284.51681   -406.67572   -406.41828   -26.710352 
  114200    266.46142   -406.75263   -406.51153    17.983029 
  114300    155.48745   -406.67148    -406.5308   -4.0836778 
  114400    239.29449   -406.78036   -406.56384    10.718695 
  114500     137.2522   -406.65348   -406.52929   -21.799766 
  114600    246.84118   -406.77424    -406.5509     24.21578 
  114700    333.20303   -406.70662   -406.40513    -13.70372 
  114800    324.23817   -406.54931   -406.25593   -11.980476 
  114900    308.96877   -406.52457   -406.24501    22.387941 
  115000     327.9666   -406.53768   -406.24093   -15.683789 
  115100    330.11794   -406.59375   -406.29505    15.973513 
  115200    449.07527   -406.79445   -406.38812   -2.4304392 
  115300    238.43703   -406.62584    -406.4101   -25.231594 
  115400    245.61363    -406.6337   -406.41146    31.860912 
  115500    240.04424    -406.6681    -406.4509   -20.657033 
  115600    304.40457   -406.69557   -406.42014   -2.8508196 
  115700    386.73403   -406.70779   -406.35786    8.8502838 
  115800    185.96912   -406.49462   -406.32635   -13.552666 
  115900      330.274   -406.64428   -406.34544    26.213985 
  116000    281.79826   -406.53707    -406.2821   -16.931884 
  116100    419.70691   -406.66164   -406.28188  -0.55599395 
  116200    348.32471   -406.59186   -406.27669    11.401455 
  116300     331.0779   -406.67614   -406.37658   -5.5437315 
  116400    307.24814   -406.71893   -406.44092   -1.3223603 
  116500    227.39656   -406.78065    -406.5749   -7.6452384 
  116600    99.782881   -406.60769   -406.51741     10.24398 
  116700    215.26269   -406.74518   -406.55041   -1.8042907 
  116800     202.2921    -406.7032   -406.52017   -17.306059 
  116900    180.26366    -406.5667    -406.4036    35.764318 
  117000    248.11171   -406.64645   -406.42196   -31.594816 
  117100    378.14205     -406.717   -406.37485   0.47269375 
  117200    255.99872   -406.48375   -406.25212    8.4467075 
  117300    217.86757   -406.49901   -406.30188     2.665326 
  117400    367.15982   -406.62935   -406.29713    10.594763 
  117500    279.90988   -406.55295   -406.29968   -14.550709 
  117600    250.51888   -406.66044   -406.43376    1.1810166 
  117700    229.32536   -406.66852   -406.46102    18.400061 
  117800    192.84762   -406.72742   -406.55293    -25.59954 
  117900    209.63691   -406.72885   -406.53917    13.898111 
  118000    152.45836   -406.61373   -406.47578    10.735296 
  118100    271.89417   -406.69793   -406.45191   -19.246547 
  118200    351.18069   -406.69784   -406.38009    4.6185763 
  118300     232.6231   -406.52126   -406.31078    8.3093486 
  118400    395.15367   -406.58109   -406.22355    4.1672882 
  118500     392.7256   -406.59548   -406.24014   -18.609902 
  118600    383.66153   -406.61058   -406.26343    7.2736421 
  118700    390.27049   -406.62206   -406.26894    9.1505941 
  118800    303.49509   -406.63898   -406.36437   -13.085984 
  118900    284.48134    -406.6139    -406.3565   -5.3433528 
  119000    239.36992   -406.60917   -406.39258    34.038068 
  119100    257.44798   -406.58646   -406.35352   -41.552978 
  119200    239.09939   -406.54564   -406.32929     29.69017 
  119300    269.62062   -406.60605   -406.36209   -8.8408863 
  119400    297.21049   -406.57196   -406.30304    14.652528 
  119500    479.87174    -406.7245    -406.2903   -15.819496 
  119600    259.51156   -406.59939   -406.36458    -17.44121 
  119700    310.60844   -406.62528   -406.34423    45.426644 
  119800     305.6988   -406.65313   -406.37652   -23.249162 
  119900    349.19262   -406.76375   -406.44779   -25.540508 
  120000    140.17177   -406.60893   -406.48209    42.507053 
  120100    148.71923   -406.68955   -406.55498   -31.360921 
  120200    291.06965   -406.80514   -406.54177    12.153732 
  120300    257.02388   -406.69516   -406.46259  -0.52578646 
  120400    336.33426   -406.65374   -406.34941   -12.902138 
  120500    409.76679   -406.55287    -406.1821    28.442451 
  120600    380.59258    -406.5248   -406.18043   -41.084375 
  120700    259.01766    -406.4862   -406.25184    24.365726 
  120800    453.68051    -406.7082    -406.2977    5.4025361 
  120900       173.33   -406.54301   -406.38618   -28.390523 
  121000    249.32887   -406.63899   -406.41339    26.575056 
  121100    249.76216   -406.67278   -406.44679    4.3960451 
  121200     299.3715   -406.64514   -406.37427   -28.258206 
  121300    398.34291   -406.78341   -406.42298    27.621967 
  121400    279.76738   -406.54087   -406.28773   -24.628155 
  121500    490.55536   -406.55153   -406.10767     14.98248 
  121600    590.03564   -406.51147   -405.97759    8.9440495 
  121700     421.5052   -406.38632   -406.00493   -47.770422 
  121800    525.13225   -406.66444   -406.18929    35.005877 
  121900    447.18575   -406.62733   -406.22271    3.8201707 
  122000     299.4545   -406.58894   -406.31799   -47.650324 
  122100    202.76041    -406.5464   -406.36294    51.151131 
  122200    335.34021   -406.68488   -406.38145   -15.395228 
  122300    214.83392   -406.58739     -406.393   -19.825959 
  122400    357.35384   -406.74952   -406.42618    32.339262 
  122500    155.77655   -406.53479   -406.39384   -19.603317 
  122600    326.30601   -406.74458   -406.44933   -2.1359464 
  122700    192.96699   -406.59102   -406.41642    26.201004 
  122800    377.12493   -406.70195   -406.36072   -22.881144 
  122900    351.15529   -406.61225   -406.29451  -0.51126782 
  123000     266.4203   -406.50465   -406.26358    10.043847 
  123100    288.32639   -406.55604   -406.29516    13.028877 
  123200    455.43041   -406.79801   -406.38593   -21.189843 
  123300    266.37961   -406.69197   -406.45095   -10.236593 
  123400    155.71903   -406.57378   -406.43289    28.720973 
  123500    278.18551   -406.72158   -406.46987   -18.458929 
  123600     292.7048   -406.77068   -406.50584   -8.6017264 
  123700     223.4856    -406.7065   -406.50428    17.139126 
  123800     196.4696   -406.60337    -406.4256   -6.9133186 
  123900    331.94008   -406.67882   -406.37848   -10.515051 
  124000    342.81851    -406.5283   -406.21811    12.514226 
  124100    246.20477   -406.42055   -406.19778   -10.466266 
  124200    425.13531   -406.57838   -406.19371    41.815057 
  124300     360.2294   -406.51061   -406.18466   -44.441189 
  124400    338.47062   -406.56923   -406.26298    2.6888086 
  124500    348.77103    -406.7273   -406.41172    39.322407 
  124600    173.58549   -406.60413   -406.44707    -40.78229 
  124700    370.69326     -406.791   -406.45559    12.453687 
  124800     185.3701   -406.60581   -406.43808    10.453633 
  124900    269.47766   -406.62126   -406.37743   -14.498845 
  125000    438.42987   -406.72541   -406.32871    10.133681 
  125100    225.40793   -406.52313   -406.31917   -28.609935 
  125200    352.60713   -406.63103   -406.31199    45.365253 
  125300    436.17604   -406.66993   -406.27527   -27.210956 
  125400    359.13232   -406.56438   -406.23943   -34.016198 
  125500    216.50125   -406.60775   -406.41185    64.450468 
  125600    178.75929   -406.63392   -406.47217   -40.896543 
  125700    265.65259   -406.77332   -406.53295    4.5319758 
  125800    170.72543   -406.66087   -406.50639    19.675252 
  125900    197.95675   -406.70199   -406.52287   -31.683834 
  126000     315.3019   -406.64417   -406.35887    31.307308 
  126100    250.25443   -406.59148   -406.36505   -24.056775 
[...]
  468200    288.97431   -406.48704   -406.22557    34.678201 
  468300    282.23624   -406.65953   -406.40415   -23.926411 
  468400     307.7012   -406.77474   -406.49633    -7.747178 
  468500    159.33295   -406.70037    -406.5562    23.483617 
  468600    119.76899    -406.6133   -406.50493   -23.471158 
  468700    191.23143   -406.62748   -406.45445    22.888391 
  468800    240.24236   -406.67468   -406.45731   -17.243651 
  468900    286.47364   -406.66905   -406.40984    7.9956373 
  469000    405.19648   -406.72468   -406.35805   -6.3226943 
  469100    261.82321   -406.56396   -406.32706   -15.880479 
  469200    327.77944   -406.59374   -406.29716    28.942604 
  469300    436.95819   -406.64663   -406.25126   -18.282299 
  469400    170.48782   -406.46628   -406.31201    3.7129837 
  469500    316.21702   -406.61366   -406.32754   0.38689722 
  469600    233.83655    -406.5227   -406.31112    16.507954 
  469700    343.06836   -406.71502    -406.4046   -34.543763 
  469800    211.43145   -406.74099   -406.54968    26.255902 
  469900    178.05571   -406.76896   -406.60785   -12.596175 
  470000    107.75437   -406.71026   -406.61276    5.6677839 
  470100    253.42943   -406.81552   -406.58621   -0.7964047 
  470200    164.37739   -406.67969   -406.53096    5.6034619 
  470300    268.21845   -406.69857   -406.45588   -15.000601 
  470400    297.61858   -406.66799    -406.3987    29.093762 
  470500    412.28408   -406.73647   -406.36342   -35.044456 
  470600    348.14747   -406.65051    -406.3355    22.584023 
  470700    308.73996   -406.59051   -406.31116   -18.862484 
  470800    234.51988   -406.53082   -406.31862    20.920022 
  470900    248.35447   -406.56308   -406.33836   0.69788605 
  471000    317.39876   -406.67715   -406.38996   -6.1685419 
  471100    170.10706   -406.62336   -406.46945    4.0475453 
  471200    271.49176   -406.79288   -406.54723  -0.29018947 
  471300    153.13983    -406.6817   -406.54314   -8.4162585 
  471400    304.57194   -406.81268    -406.5371    4.0311834 
  471500    235.11268   -406.63063    -406.4179   0.86708872 
  471600    302.67553   -406.65381   -406.37995   -13.520007 
  471700    366.28737   -406.63606   -406.30464    21.102366 
  471800    334.12107   -406.54737   -406.24505   -12.834896 
  471900    297.74519   -406.54452   -406.27512    14.436541 
  472000    338.38949    -406.6692   -406.36302   -20.121642 
  472100    289.99197   -406.65178   -406.38939    22.527727 
  472200    215.78223   -406.57767   -406.38243   -8.8227043 
  472300    253.61527   -406.72366   -406.49419     5.397451 
  472400    181.79747   -406.60205   -406.43756   -10.333438 
  472500    246.91129   -406.64744   -406.42403    17.746825 
  472600    297.22708   -406.60987   -406.34093   -24.748801 
  472700    537.45705   -406.67842   -406.19212     23.28385 
  472800    339.32476   -406.45497   -406.14794    -12.75722 
  472900    473.65469   -406.58091   -406.15233    23.320593 
  473000     383.5185   -406.58378   -406.23677   -20.519158 
  473100    307.93213    -406.6446   -406.36597   -9.0706188 
  473200    254.44378    -406.5857   -406.35547    32.659029 
  473300    242.60464   -406.65128   -406.43177   -28.005599 
  473400    318.66739   -406.67768   -406.38934    4.8814563 
  473500    209.72069    -406.6067   -406.41694      28.5538 
  473600    282.30944   -406.58394   -406.32851   -41.942119 
  473700    257.79062   -406.58053   -406.34727     30.92914 
  473800    521.58229   -406.60371   -406.13177    14.117618 
  473900    366.02935   -406.32193   -405.99074   -66.019968 
  474000    635.89939   -406.56079   -405.98542    71.245037 
  474100    355.27136   -406.40221   -406.08075   -51.216017 
  474200    499.79696   -406.66434   -406.21211    16.574143 
  474300    396.84902   -406.59726   -406.23818   -1.8161145 
  474400    242.99384   -406.55271   -406.33285   -16.096486 
  474500    283.49374   -406.64456   -406.38805    24.813961 
  474600    298.69155   -406.66175   -406.39149   -15.110745 
  474700    193.24305   -406.61995    -406.4451   -8.2075311 
  474800    343.65411   -406.77561   -406.46466    32.384787 
  474900    214.76231   -406.63211   -406.43779    -46.41126 
  475000    336.67781   -406.71551   -406.41088    31.525105 
  475100    419.02131   -406.71212   -406.33298    1.0102583 
  475200    276.23233   -406.45436   -406.20442   -36.718659 
  475300    485.37567   -406.62521   -406.18603    43.953791 
  475400      376.438   -406.41205   -406.07145   -17.850771 
  475500    442.25718     -406.629   -406.22883   -10.339393 
  475600    201.61826   -406.47137   -406.28894    23.326199 
  475700    276.82562    -406.6307   -406.38022   -13.865348 
  475800    270.25896   -406.67159   -406.42705    2.4129918 
  475900    356.78099   -406.70366   -406.38083     13.78961 
  476000    222.03621   -406.59516   -406.39425   -34.213858 
  476100    415.88712   -406.77837   -406.40206    39.791643 
  476200    240.25524    -406.5412   -406.32381   -41.308011 
  476300    493.27932   -406.75517   -406.30884    17.949034 
  476400      364.985    -406.4679   -406.13765    5.1185524 
  476500    403.07853   -406.46419   -406.09948   -16.378603 
  476600    660.23628   -406.57948   -405.98209   0.17812587 
  476700    597.01789   -406.63806   -406.09787    6.3326432 
  476800    204.54227    -406.4285   -406.24343   -4.3814501 
  476900    351.81421   -406.71636   -406.39803    5.9252858 
  477000    247.63815   -406.58419   -406.36012   -6.4725899 
  477100    226.01965   -406.56318   -406.35868    8.5979805 
  477200    155.93899   -406.51937   -406.37828   -4.6850703 
  477300    336.81751   -406.67007   -406.36531    2.2862223 
  477400    396.69656   -406.68405   -406.32511    5.4203722 
  477500    407.25712   -406.61632   -406.24782   -16.388696 
  477600    362.48593    -406.5261   -406.19812    16.539544 
  477700    390.18982   -406.64168   -406.28863    -16.98626 
  477800    318.72629   -406.68915   -406.40076    23.525855 
  477900    204.26251   -406.58773   -406.40291    -19.05972 
  478000    188.96416   -406.71545   -406.54448    16.835791 
  478100    185.29897   -406.64223   -406.47456   -4.6857531 
  478200    135.92336   -406.56502   -406.44204    2.7528442 
  478300    347.38971   -406.76849   -406.45417  -0.46139805 
  478400    206.27202   -406.48036   -406.29372   -4.9823696 
  478500    390.66382   -406.58891   -406.23543    7.4853805 
  478600     396.7106   -406.65456   -406.29561     9.387185 
  478700    285.38191   -406.52218   -406.26396   -45.074596 
  478800    240.37297   -406.45282   -406.23533    50.488326 
  478900    364.27792   -406.64434   -406.31473   -12.982922 
  479000    255.71653   -406.59705   -406.36567   -31.262726 
  479100    197.30266   -406.58801   -406.40949    49.424786 
  479200    188.21703   -406.62199   -406.45169   -27.612735 
  479300     264.9925   -406.73014   -406.49037 -0.019484371 
  479400    117.94492   -406.65543   -406.54871     11.34968 
  479500     184.2006   -406.70331   -406.53664   -14.802135 
  479600    131.99729   -406.72653   -406.60709    9.2631356 
  479700    210.54088   -406.71733   -406.52683    3.9455563 
  479800    218.59684   -406.64041   -406.44262    -12.26953 
  479900    435.77283   -406.66641   -406.27211    17.638156 
  480000    346.04955   -406.59499   -406.28188   -12.180047 
  480100    483.41174   -406.73372   -406.29632    6.0578857 
  480200    305.96356   -406.54443   -406.26759   -8.4194273 
  480300    325.13736     -406.662    -406.3678    15.454807 
  480400    229.83924   -406.57256    -406.3646   -4.5201248 
  480500    304.44444   -406.68853   -406.41306    -7.917161 
  480600    177.83884   -406.66622   -406.50531    13.752181 
  480700    274.78185   -406.74014   -406.49151   -11.596845 
  480800    214.16156    -406.6863   -406.49252   -8.1650882 
  480900    272.51162   -406.76201   -406.51543    17.766627 
  481000    225.65905   -406.70946   -406.50528   -14.021406 
  481100    380.70171   -406.72522   -406.38076     5.904521 
  481200    386.52997   -406.65022   -406.30048     3.620631 
  481300    427.88245   -406.73794   -406.35078   -11.634584 
  481400      421.722   -406.74318    -406.3616    20.289758 
  481500    329.28789   -406.76577   -406.46782   -24.337742 
  481600     243.4982    -406.7599   -406.53958    8.3055913 
  481700    235.62108   -406.70094   -406.48775   -1.1739788 
  481800    264.84631   -406.73334   -406.49371   -8.0315061 
  481900    293.91305    -406.7812   -406.51526    11.961694 
  482000    324.31296   -406.76667   -406.47323    5.6719504 
  482100    190.38358   -406.54356   -406.37129   -16.517113 
  482200    318.12954   -406.65271   -406.36486    42.440899 
  482300    187.64535   -406.54434   -406.37456   -43.584086 
  482400    332.24775   -406.72092    -406.4203    39.054872 
  482500    175.14954   -406.48901   -406.33053   -8.4729048 
  482600    365.36835   -406.72157   -406.39098   -10.118792 
  482700    179.69248   -406.49246   -406.32987    11.400712 
  482800     358.5926   -406.61171   -406.28725   -2.8310533 
  482900    310.74047   -406.47631   -406.19515   -17.433646 
  483000    621.56104   -406.67557   -406.11317     12.23811 
  483100    378.14506   -406.48473   -406.14257   -37.823434 
  483200    319.40466     -406.511   -406.22199    32.112461 
  483300    445.71305   -406.68217   -406.27888   -15.011136 
  483400    295.85703   -406.63467   -406.36697   -13.891898 
  483500     263.1611    -406.6666   -406.42848    22.943694 
  483600    253.24571   -406.58143   -406.35229   -20.332037 
  483700    325.93866   -406.70251    -406.4076    7.6842233 
  483800    242.48167   -406.56875   -406.34934   -4.0040011 
  483900    273.07489   -406.58897   -406.34189    14.685533 
  484000    361.59062   -406.55992   -406.23274   -22.468645 
  484100    248.53917   -406.36488      -406.14    19.795804 
  484200      468.366   -406.41996   -405.99617  -0.54432063 
  484300    522.16339   -406.51969   -406.04723   -4.2508702 
  484400    392.04634   -406.62946   -406.27473   -14.786504 
  484500    298.01243   -406.60843   -406.33878    26.740592 
  484600    290.37208   -406.70936   -406.44663   -27.905274 
  484700    268.74256   -406.62572   -406.38255    15.204173 
  484800    287.85031   -406.68026   -406.41981    -3.309965 
  484900    371.10368   -406.71873   -406.38294   -5.4498004 
  485000    319.24637   -406.56112   -406.27226   -7.0428485 
  485100    326.86369   -406.56917   -406.27342    8.5016563 
  485200    342.94606    -406.4686    -406.1583   -1.4887016 
  485300    407.10979   -406.55974   -406.19138   -12.573574 
  485400    326.47157   -406.44106   -406.14566    6.2681048 
  485500    252.60806   -406.44881   -406.22024    1.8158687 
  485600    356.65021   -406.73656   -406.41386     5.793421 
  485700    216.79136   -406.62052   -406.42436   -18.681768 
  485800    194.05036    -406.6101   -406.43452    28.413865 
  485900    263.15027   -406.66282   -406.42472   -13.826489 
  486000    283.88918    -406.6702   -406.41333   -6.7035354 
  486100    298.34792   -406.61785    -406.3479    23.576817 
  486200    348.58362   -406.54009   -406.22469   -11.917099 
  486300    297.30222     -406.495   -406.22599   -20.724251 
  486400    306.59049   -406.46171    -406.1843    37.586236 
  486500    269.73074   -406.43006   -406.18601   -34.246913 
  486600    495.51794   -406.69278   -406.24443    19.670406 
  486700    361.82113   -406.61987   -406.29249   -11.876971 
  486800    428.94741   -406.68623   -406.29811    -5.948523 
  486900    373.82086   -406.63675   -406.29851    7.3562847 
  487000    392.95556   -406.70296    -406.3474   -17.412799 
  487100    364.08702   -406.72347   -406.39403    7.3628509 
  487200    344.86039   -406.65247   -406.34043    1.7388567 
  487300    300.66294   -406.67088   -406.39883   -7.2558297 
  487400    260.35804   -406.62081   -406.38523     4.530014 
  487500    282.07308   -406.67706   -406.42183    2.4495579 
  487600    182.62166   -406.72037   -406.55513   -17.774385 
  487700    180.81282   -406.66325   -406.49965    32.964017 
  487800    173.72985   -406.71764   -406.56045   -34.225305 
  487900    233.76809   -406.69521   -406.48369     28.75101 
  488000    247.19702   -406.66672   -406.44305   -7.3610419 
  488100    337.81561   -406.65197   -406.34631    1.2745832 
  488200    359.14251   -406.55915   -406.23419   -6.5445309 
  488300     476.3462   -406.63941    -406.2084    32.936199 
  488400    250.63097   -406.48246   -406.25568   -44.817079 
  488500    256.64865   -406.63602    -406.4038    34.303453 
  488600    209.68969   -406.57641   -406.38667   -7.8768968 
  488700    161.55626   -406.56644   -406.42026   -4.8723346 
  488800     283.4214   -406.68032   -406.42387    14.050044 
  488900    163.20517   -406.56912   -406.42145   -10.664863 
  489000    344.08463   -406.73451   -406.42318   -4.5582915 
  489100    287.01163   -406.59066   -406.33096    15.676435 
  489200    300.43133   -406.56885   -406.29701    -36.33514 
  489300    332.65275   -406.64351   -406.34252     31.19472 
  489400    376.68042   -406.71145   -406.37063   -23.522871 
  489500    375.17245   -406.63967    -406.3002   -17.908988 
  489600    305.41939    -406.5704   -406.29405    41.711255 
  489700    308.30716   -406.57019   -406.29123   -59.508464 
  489800    184.07664   -406.46641   -406.29985    64.184282 
  489900    363.34165   -406.64839   -406.31963   -31.344033 
  490000    195.93094   -406.44276   -406.26548    7.8451954 
  490100    219.44232   -406.53124   -406.33268    24.343016 
  490200    226.21118   -406.54138    -406.3367   0.40232867 
  490300    232.60257   -406.55261   -406.34214   -9.2188839 
  490400    253.62439   -406.64069   -406.41121    40.595339 
  490500    135.54604    -406.5447   -406.42205   -37.519121 
  490600    275.20405   -406.73029   -406.48128    31.147014 
  490700    186.12345   -406.68707   -406.51866   -21.180952 
  490800    299.72499   -406.75601   -406.48481    9.1750459 
  490900    266.50054   -406.58947   -406.34834   -10.909019 
  491000    345.71183   -406.54088   -406.22808    -9.926944 
  491100    487.40507   -406.62757   -406.18655    22.803807 
  491200    472.11954   -406.62882   -406.20163   -31.371525 
  491300    396.87087   -406.64347   -406.28438    7.8278757 
  491400    320.80274   -406.61394   -406.32367    14.849139 
  491500    207.98006    -406.6388   -406.45062   -19.178688 
  491600    261.85226   -406.64493     -406.408    10.457636 
  491700    299.55485   -406.72679   -406.45574     2.078589 
  491800    329.97334   -406.65063   -406.35206   -21.203212 
  491900    373.57784   -406.68412    -406.3461    23.382541 
  492000    318.10321   -406.65884   -406.37101   -28.608307 
  492100    418.25405   -406.75441   -406.37597    23.424908 
  492200    280.53081   -406.58544   -406.33161    -17.50964 
  492300    247.47764    -406.6667   -406.44278    17.562822 
  492400    103.40463   -406.56617   -406.47261    5.6903783 
  492500    170.98462   -406.68391    -406.5292    4.3555812 
  492600    139.96034   -406.63802   -406.51138    2.8439766 
  492700    299.33378    -406.7912   -406.52036    8.2434913 
  492800    278.04338   -406.65297   -406.40139   -19.876349 
  492900    285.13317   -406.57685   -406.31885     24.16324 
  493000    399.02727   -406.60637   -406.24532   -26.545638 
  493100    472.51303   -406.69185   -406.26431   0.45840684 
  493200    323.59171   -406.53067   -406.23788    2.0517289 
  493300    373.78544   -406.67909   -406.34089   -11.472923 
  493400    229.86932   -406.55956   -406.35157    9.0953433 
  493500    291.85667   -406.71063   -406.44655   -8.2376158 
  493600    214.55529   -406.61886   -406.42472    5.6077611 
  493700    221.38459   -406.65699   -406.45668   -3.2010282 
  493800    145.50296   -406.64101   -406.50936    11.607886 
  493900    367.39169   -406.70211   -406.36969   -23.530535 
  494000     375.0276   -406.60399   -406.26466    31.373262 
  494100    464.97585   -406.62022    -406.1995   -35.244085 
  494200    317.74814   -406.47398   -406.18647    15.932433 
  494300    278.52836   -406.47784   -406.22582   -6.2469677 
  494400    287.23674   -406.55005   -406.29015    4.9529754 
  494500     345.9059   -406.66324   -406.35026    3.7268178 
  494600    268.93442    -406.6848   -406.44146   -10.405483 
  494700    255.52042   -406.63897   -406.40777   -4.6691191 
  494800    382.32794   -406.73147   -406.38553    28.811182 
  494900    197.21881    -406.5939   -406.41545   -44.515674 
  495000    246.58772    -406.5868   -406.36369    54.066464 
  495100    393.44464   -406.64845   -406.29245    -23.02411 
  495200    377.81958   -406.40089   -406.05903   -18.473854 
  495300    560.56124   -406.44539   -405.93819    50.916469 
  495400    398.31361   -406.35237   -405.99197   -64.817653 
  495500    618.96699    -406.6914   -406.13135    26.525248 
  495600    498.33302   -406.67876   -406.22785   -11.702453 
  495700    314.02886   -406.61815   -406.33401   -19.419953 
  495800    323.47415   -406.63311   -406.34042    17.619827 
  495900    191.85096   -406.56146   -406.38787    2.4230102 
  496000    243.94894   -406.65012   -406.42939   -17.450417 
  496100    242.70339   -406.63322   -406.41361    32.848742 
  496200    190.38278   -406.62104   -406.44878   -29.643379 
  496300    339.11306   -406.69052   -406.38369    30.358303 
  496400    390.81552     -406.722   -406.36838   -28.067035 
  496500    353.51587   -406.51118   -406.19131   -6.1223441 
  496600    492.45457   -406.56746   -406.12188    15.304816 
  496700    394.06205   -406.48333   -406.12677   -16.883311 
  496800    387.20122   -406.48096   -406.13061   -7.0326342 
  496900    257.19101   -406.54046   -406.30774    9.8292743 
  497000    131.88224   -406.46198   -406.34265    12.440592 
  497100    279.80739    -406.6058   -406.35262   -10.804085 
  497200    264.27064   -406.64624   -406.40712    6.2508032 
  497300    248.63289   -406.60804   -406.38307     15.91674 
  497400    296.46175   -406.61381   -406.34557   -11.485894 
  497500    367.64135   -406.74914   -406.41649  -0.80735687 
  497600    287.71092   -406.58415   -406.32383    12.429907 
  497700    418.29684   -406.68763   -406.30915   -17.424206 
  497800    413.04123   -406.68109   -406.30737    -1.603538 
  497900     417.0594    -406.7232   -406.34584  -0.11897214 
  498000    318.62003   -406.61198   -406.32368   -3.0566156 
  498100    245.78415   -406.61572   -406.39333   -11.413453 
  498200    185.92545   -406.65196   -406.48373    18.294829 
  498300    156.56999   -406.64577    -406.5041   -13.602782 
  498400    154.53707   -406.64482   -406.50499    10.496034 
WARNING: Wall time limit reached (../timer.cpp:262)
Loop time of 1199.48 on 1 procs for 498400 steps with 8 atoms

Performance: 17.950 ns/day, 1.337 hours/ns, 415.512 timesteps/s
175.7% CPU use with 1 MPI tasks x no OpenMP threads

MPI task timing breakdown:
Section |  min time  |  avg time  |  max time  |%varavg| %total
---------------------------------------------------------------
Pair    | 950.87     | 950.87     | 950.87     |   0.0 | 79.27
Neigh   | 0.017011   | 0.017011   | 0.017011   |   0.0 |  0.00
Comm    | 0.23325    | 0.23325    | 0.23325    |   0.0 |  0.02
Output  | 0.17959    | 0.17959    | 0.17959    |   0.0 |  0.01
Modify  | 247.89     | 247.89     | 247.89     |   0.0 | 20.67
Other   |            | 0.2907     |            |       |  0.02

Nlocal:    8 ave 8 max 8 min
Histogram: 1 0 0 0 0 0 0 0 0 0
Nghost:    0 ave 0 max 0 min
Histogram: 1 0 0 0 0 0 0 0 0 0
Neighs:    0 ave 0 max 0 min
Histogram: 1 0 0 0 0 0 0 0 0 0

Total # of neighbors = 0
Ave neighs/atom = 0
Neighbor list builds = 1663
Dangerous builds = 0

write_restart lammps.restart
WARNING: Pair style restartinfo set but has no restart support (../pair.cpp:711)
Total wall time: 0:20:00
