ITEM: TIMESTEP
0
ITEM: NUMBER OF ATOMS
8
ITEM: BOX BOUNDS pp pp pp
-2.0000000000000000e+01 2.0000000000000000e+01
-2.0000000000000000e+01 2.0000000000000000e+01
-2.0000000000000000e+01 2.0000000000000000e+01
ITEM: ATOMS id type xs ys zs
3 2 0.448185 0.523455 0.510977
4 2 0.429097 0.539907 0.474475
1 1 0.436933 0.545839 0.5
5 2 0.414696 0.552319 0.514549
8 2 0.450359 0.596857 0.489023
2 1 0.461612 0.574473 0.5
6 2 0.483849 0.567993 0.485451
7 2 0.469447 0.580406 0.525525
ITEM: TIMESTEP
100
ITEM: NUMBER OF ATOMS
8
ITEM: BOX BOUNDS pp pp pp
-2.0000000000000000e+01 2.0000000000000000e+01
-2.0000000000000000e+01 2.0000000000000000e+01
-2.0000000000000000e+01 2.0000000000000000e+01
ITEM: ATOMS id type xs ys zs
3 2 0.447768 0.523061 0.511974
4 2 0.429428 0.53987 0.473247
1 1 0.436416 0.545512 0.500033
5 2 0.412664 0.551529 0.51451
8 2 0.447664 0.596393 0.49006
2 1 0.462243 0.574724 0.49995
6 2 0.485671 0.568907 0.484858
7 2 0.471078 0.58208 0.525543
ITEM: TIMESTEP
200
ITEM: NUMBER OF ATOMS
8
ITEM: BOX BOUNDS pp pp pp
-2.0000000000000000e+01 2.0000000000000000e+01
-2.0000000000000000e+01 2.0000000000000000e+01
-2.0000000000000000e+01 2.0000000000000000e+01
ITEM: ATOMS id type xs ys zs
3 2 0.446511 0.524374 0.514255
4 2 0.431965 0.539313 0.474597
1 1 0.436939 0.545737 0.500041
5 2 0.414415 0.553638 0.511434
8 2 0.447942 0.596999 0.492628
2 1 0.461659 0.57455 0.499843
6 2 0.481899 0.568427 0.484122
7 2 0.472265 0.57849 0.524354
ITEM: TIMESTEP
300
ITEM: NUMBER OF ATOMS
8
ITEM: BOX BOUNDS pp pp pp
-2.0000000000000000e+01 2.0000000000000000e+01
-2.0000000000000000e+01 2.0000000000000000e+01
-2.0000000000000000e+01 2.0000000000000000e+01
ITEM: ATOMS id type xs ys zs
3 2 0.450462 0.521521 0.504729
4 2 0.423621 0.54395 0.475136
1 1 0.436482 0.54467 0.500124
5 2 0.417574 0.550772 0.520446
8 2 0.453777 0.595699 0.483067
2 1 0.461964 0.575741 0.499788
6 2 0.486333 0.563884 0.491321
7 2 0.465035 0.583941 0.52634
ITEM: TIMESTEP
400
ITEM: NUMBER OF ATOMS
8
ITEM: BOX BOUNDS pp pp pp
-2.0000000000000000e+01 2.0000000000000000e+01
-2.0000000000000000e+01 2.0000000000000000e+01
-2.0000000000000000e+01 2.0000000000000000e+01
ITEM: ATOMS id type xs ys zs
3 2 0.451 0.52542 0.513493
4 2 0.431346 0.537274 0.474863
1 1 0.436694 0.545876 0.500015
5 2 0.41483 0.554331 0.512952
8 2 0.448281 0.598079 0.490452
2 1 0.461792 0.574485 0.499935
6 2 0.481481 0.568353 0.482729
7 2 0.469388 0.576896 0.526102
ITEM: TIMESTEP
500
ITEM: NUMBER OF ATOMS
8
ITEM: BOX BOUNDS pp pp pp
-2.0000000000000000e+01 2.0000000000000000e+01
-2.0000000000000000e+01 2.0000000000000000e+01
-2.0000000000000000e+01 2.0000000000000000e+01
ITEM: ATOMS id type xs ys zs
3 2 0.445253 0.527335 0.516833
4 2 0.436211 0.534698 0.475113
1 1 0.436014 0.544887 0.500267
5 2 0.411693 0.554832 0.50855
8 2 0.448936 0.596396 0.495233
2 1 0.46263 0.57533 0.499959
6 2 0.478098 0.573063 0.477473
7 2 0.474262 0.57575 0.524105
ITEM: TIMESTEP
600
ITEM: NUMBER OF ATOMS
8
ITEM: BOX BOUNDS pp pp pp
-2.0000000000000000e+01 2.0000000000000000e+01
-2.0000000000000000e+01 2.0000000000000000e+01
-2.0000000000000000e+01 2.0000000000000000e+01
ITEM: ATOMS id type xs ys zs
3 2 0.451038 0.51991 0.504344
4 2 0.425508 0.547826 0.475661
1 1 0.436784 0.545413 0.500418
5 2 0.419013 0.550499 0.520506
8 2 0.451595 0.593768 0.479771
2 1 0.461785 0.57489 0.499865
6 2 0.48546 0.565491 0.490588
7 2 0.462729 0.583561 0.525756
ITEM: TIMESTEP
700
ITEM: NUMBER OF ATOMS
8
ITEM: BOX BOUNDS pp pp pp
-2.0000000000000000e+01 2.0000000000000000e+01
-2.0000000000000000e+01 2.0000000000000000e+01
-2.0000000000000000e+01 2.0000000000000000e+01
ITEM: ATOMS id type xs ys zs
3 2 0.449342 0.523806 0.493228
4 2 0.416655 0.551739 0.482869
1 1 0.436395 0.544926 0.499977
5 2 0.427257 0.542087 0.525582
8 2 0.45995 0.587147 0.476399
2 1 0.462052 0.575451 0.499767
6 2 0.486882 0.56334 0.504006
7 2 0.4567 0.592043 0.520966
ITEM: TIMESTEP
800
ITEM: NUMBER OF ATOMS
8
ITEM: BOX BOUNDS pp pp pp
-2.0000000000000000e+01 2.0000000000000000e+01
-2.0000000000000000e+01 2.0000000000000000e+01
-2.0000000000000000e+01 2.0000000000000000e+01
ITEM: ATOMS id type xs ys zs
3 2 0.442045 0.528478 0.477436
4 2 0.4105 0.55425 0.501291
1 1 0.436372 0.545502 0.499883
5 2 0.4427 0.532044 0.522471
8 2 0.472269 0.577601 0.474202
2 1 0.462207 0.57477 0.500159
6 2 0.478322 0.570513 0.520601
7 2 0.44938 0.598526 0.503489
ITEM: TIMESTEP
900
ITEM: NUMBER OF ATOMS
8
ITEM: BOX BOUNDS pp pp pp
-2.0000000000000000e+01 2.0000000000000000e+01
-2.0000000000000000e+01 2.0000000000000000e+01
-2.0000000000000000e+01 2.0000000000000000e+01
ITEM: ATOMS id type xs ys zs
3 2 0.434714 0.536369 0.474595
4 2 0.412452 0.554963 0.509429
1 1 0.436824 0.545173 0.50016
5 2 0.44588 0.524804 0.51753
8 2 0.479013 0.572615 0.479043
2 1 0.461897 0.574895 0.499756
6 2 0.473686 0.57647 0.525744
7 2 0.447785 0.598633 0.494663
ITEM: TIMESTEP
1000
ITEM: NUMBER OF ATOMS
8
ITEM: BOX BOUNDS pp pp pp
-2.0000000000000000e+01 2.0000000000000000e+01
-2.0000000000000000e+01 2.0000000000000000e+01
-2.0000000000000000e+01 2.0000000000000000e+01
ITEM: ATOMS id type xs ys zs
3 2 0.421363 0.547929 0.47752
4 2 0.419965 0.547008 0.521173
1 1 0.436938 0.544924 0.500313
5 2 0.448507 0.521109 0.500242
8 2 0.487751 0.56518 0.495423
2 1 0.461696 0.575306 0.499771
6 2 0.462868 0.587597 0.523816
7 2 0.454117 0.593098 0.480828
ITEM: TIMESTEP
1100
ITEM: NUMBER OF ATOMS
8
ITEM: BOX BOUNDS pp pp pp
-2.0000000000000000e+01 2.0000000000000000e+01
-2.0000000000000000e+01 2.0000000000000000e+01
-2.0000000000000000e+01 2.0000000000000000e+01
ITEM: ATOMS id type xs ys zs
3 2 0.418379 0.545902 0.47871
4 2 0.421642 0.545528 0.52356
1 1 0.436784 0.545722 0.499639
5 2 0.451386 0.521092 0.500096
8 2 0.48687 0.565303 0.497106
2 1 0.461737 0.57462 0.500038
6 2 0.462787 0.589819 0.524105
7 2 0.454846 0.592938 0.480278
ITEM: TIMESTEP
1200
ITEM: NUMBER OF ATOMS
8
ITEM: BOX BOUNDS pp pp pp
-2.0000000000000000e+01 2.0000000000000000e+01
-2.0000000000000000e+01 2.0000000000000000e+01
-2.0000000000000000e+01 2.0000000000000000e+01
ITEM: ATOMS id type xs ys zs
3 2 0.432988 0.534312 0.475129
4 2 0.412378 0.552109 0.509872
1 1 0.436506 0.545678 0.500095
5 2 0.447024 0.525267 0.514044
8 2 0.48318 0.571848 0.481877
2 1 0.461768 0.574789 0.499829
6 2 0.474411 0.577011 0.52361
7 2 0.448878 0.598552 0.496367
ITEM: TIMESTEP
1300
ITEM: NUMBER OF ATOMS
8
ITEM: BOX BOUNDS pp pp pp
-2.0000000000000000e+01 2.0000000000000000e+01
-2.0000000000000000e+01 2.0000000000000000e+01
-2.0000000000000000e+01 2.0000000000000000e+01
ITEM: ATOMS id type xs ys zs
3 2 0.440964 0.527306 0.48027
4 2 0.411119 0.555628 0.496373
1 1 0.43724 0.545684 0.49999
5 2 0.43615 0.529112 0.5228
8 2 0.472171 0.580273 0.475344
2 1 0.461431 0.574557 0.499971
6 2 0.483429 0.570795 0.517285
7 2 0.450297 0.598667 0.508383
ITEM: TIMESTEP
1400
ITEM: NUMBER OF ATOMS
8
ITEM: BOX BOUNDS pp pp pp
-2.0000000000000000e+01 2.0000000000000000e+01
-2.0000000000000000e+01 2.0000000000000000e+01
-2.0000000000000000e+01 2.0000000000000000e+01
ITEM: ATOMS id type xs ys zs
3 2 0.447473 0.519489 0.49793
1 1 0.436934 0.545317 0.499737
5 2 0.421431 0.544124 0.522333
4 2 0.418408 0.547089 0.479404
7 2 0.462994 0.591293 0.522144
8 2 0.455696 0.593748 0.480376
2 1 0.461766 0.574891 0.50029
6 2 0.487782 0.56644 0.497486
ITEM: TIMESTEP
1500
ITEM: NUMBER OF ATOMS
8
ITEM: BOX BOUNDS pp pp pp
-2.0000000000000000e+01 2.0000000000000000e+01
-2.0000000000000000e+01 2.0000000000000000e+01
-2.0000000000000000e+01 2.0000000000000000e+01
ITEM: ATOMS id type xs ys zs
3 2 0.444474 0.526461 0.516735
1 1 0.436958 0.546047 0.499836
5 2 0.410898 0.55217 0.505067
4 2 0.435007 0.531242 0.477084
7 2 0.478588 0.576113 0.521389
8 2 0.449849 0.598608 0.501338
2 1 0.461396 0.574467 0.50006
6 2 0.479076 0.573935 0.479626
ITEM: TIMESTEP
1600
ITEM: NUMBER OF ATOMS
8
ITEM: BOX BOUNDS pp pp pp
-2.0000000000000000e+01 2.0000000000000000e+01
-2.0000000000000000e+01 2.0000000000000000e+01
-2.0000000000000000e+01 2.0000000000000000e+01
ITEM: ATOMS id type xs ys zs
3 2 0.427852 0.536863 0.524998
1 1 0.436736 0.545875 0.499922
5 2 0.414351 0.549085 0.483865
4 2 0.447205 0.52148 0.491379
7 2 0.487767 0.56731 0.504506
8 2 0.45676 0.593604 0.520436
2 1 0.461619 0.574583 0.499923
6 2 0.463946 0.590863 0.476663
ITEM: TIMESTEP
1700
ITEM: NUMBER OF ATOMS
8
ITEM: BOX BOUNDS pp pp pp
-2.0000000000000000e+01 2.0000000000000000e+01
-2.0000000000000000e+01 2.0000000000000000e+01
-2.0000000000000000e+01 2.0000000000000000e+01
ITEM: ATOMS id type xs ys zs
3 2 0.413178 0.552279 0.510657
1 1 0.43742 0.545925 0.499987
5 2 0.430049 0.537165 0.475378
4 2 0.444346 0.523997 0.513726
7 2 0.48216 0.570454 0.482098
8 2 0.473896 0.579366 0.523457
2 1 0.46127 0.574301 0.499877
6 2 0.450275 0.598701 0.496312
ITEM: TIMESTEP
1800
ITEM: NUMBER OF ATOMS
8
ITEM: BOX BOUNDS pp pp pp
-2.0000000000000000e+01 2.0000000000000000e+01
-2.0000000000000000e+01 2.0000000000000000e+01
-2.0000000000000000e+01 2.0000000000000000e+01
ITEM: ATOMS id type xs ys zs
3 2 0.413134 0.551883 0.486966
1 1 0.436831 0.545673 0.500004
5 2 0.443788 0.522486 0.48656
4 2 0.430715 0.535541 0.525546
7 2 0.465397 0.583975 0.475079
8 2 0.487504 0.569538 0.50748
2 1 0.461662 0.574846 0.500046
6 2 0.455709 0.595049 0.517775
ITEM: TIMESTEP
1900
ITEM: NUMBER OF ATOMS
8
ITEM: BOX BOUNDS pp pp pp
-2.0000000000000000e+01 2.0000000000000000e+01
-2.0000000000000000e+01 2.0000000000000000e+01
-2.0000000000000000e+01 2.0000000000000000e+01
ITEM: ATOMS id type xs ys zs
3 2 0.428124 0.539103 0.474884
1 1 0.437059 0.546376 0.499931
5 2 0.447505 0.522845 0.509967
4 2 0.415663 0.549345 0.516011
7 2 0.451222 0.598088 0.48919
8 2 0.485026 0.569958 0.484607
2 1 0.46129 0.57402 0.500071
6 2 0.470422 0.580605 0.525313
ITEM: TIMESTEP
2000
ITEM: NUMBER OF ATOMS
8
ITEM: BOX BOUNDS pp pp pp
-2.0000000000000000e+01 2.0000000000000000e+01
-2.0000000000000000e+01 2.0000000000000000e+01
-2.0000000000000000e+01 2.0000000000000000e+01
ITEM: ATOMS id type xs ys zs
3 2 0.442761 0.525981 0.481689
1 1 0.436664 0.545548 0.500024
5 2 0.434761 0.534719 0.525091
4 2 0.410069 0.551447 0.493497
7 2 0.453597 0.597098 0.513187
8 2 0.468945 0.582315 0.474868
2 1 0.461963 0.574797 0.499714
6 2 0.484524 0.56899 0.51479
ITEM: TIMESTEP
2100
ITEM: NUMBER OF ATOMS
8
ITEM: BOX BOUNDS pp pp pp
-2.0000000000000000e+01 2.0000000000000000e+01
-2.0000000000000000e+01 2.0000000000000000e+01
-2.0000000000000000e+01 2.0000000000000000e+01
ITEM: ATOMS id type xs ys zs
3 2 0.448722 0.520648 0.50185
1 1 0.437239 0.546044 0.500239
5 2 0.418552 0.549144 0.520792
4 2 0.423057 0.543477 0.476944
7 2 0.467037 0.584099 0.524952
8 2 0.452646 0.594584 0.482322
2 1 0.461254 0.574472 0.499787
6 2 0.486229 0.566559 0.492827
ITEM: TIMESTEP
2200
ITEM: NUMBER OF ATOMS
8
ITEM: BOX BOUNDS pp pp pp
-2.0000000000000000e+01 2.0000000000000000e+01
-2.0000000000000000e+01 2.0000000000000000e+01
-2.0000000000000000e+01 2.0000000000000000e+01
ITEM: ATOMS id type xs ys zs
3 2 0.439624 0.52833 0.521051
1 1 0.436497 0.5452 0.500041
5 2 0.411048 0.55386 0.502493
4 2 0.438533 0.529837 0.477031
7 2 0.482459 0.573733 0.518775
8 2 0.448725 0.598538 0.502866
2 1 0.462027 0.575139 0.500205
6 2 0.475493 0.57633 0.47485
ITEM: TIMESTEP
2300
ITEM: NUMBER OF ATOMS
8
ITEM: BOX BOUNDS pp pp pp
-2.0000000000000000e+01 2.0000000000000000e+01
-2.0000000000000000e+01 2.0000000000000000e+01
-2.0000000000000000e+01 2.0000000000000000e+01
ITEM: ATOMS id type xs ys zs
3 2 0.426417 0.541939 0.526009
1 1 0.436974 0.545897 0.499939
5 2 0.414432 0.5493 0.483722
4 2 0.44957 0.523213 0.490911
7 2 0.487656 0.566089 0.503783
8 2 0.457191 0.593068 0.5205
2 1 0.461727 0.574418 0.499927
6 2 0.458495 0.587297 0.476676
ITEM: TIMESTEP
2400
ITEM: NUMBER OF ATOMS
8
ITEM: BOX BOUNDS pp pp pp
-2.0000000000000000e+01 2.0000000000000000e+01
-2.0000000000000000e+01 2.0000000000000000e+01
-2.0000000000000000e+01 2.0000000000000000e+01
ITEM: ATOMS id type xs ys zs
3 2 0.424459 0.54448 0.5246
1 1 0.436545 0.545183 0.500395
5 2 0.418009 0.547368 0.48042
4 2 0.448535 0.521176 0.494686
7 2 0.487412 0.565746 0.501746
8 2 0.460926 0.588275 0.523031
2 1 0.461927 0.575274 0.499443
6 2 0.457149 0.592172 0.477452
ITEM: TIMESTEP
2500
ITEM: NUMBER OF ATOMS
8
ITEM: BOX BOUNDS pp pp pp
-2.0000000000000000e+01 2.0000000000000000e+01
-2.0000000000000000e+01 2.0000000000000000e+01
-2.0000000000000000e+01 2.0000000000000000e+01
ITEM: ATOMS id type xs ys zs
3 2 0.439958 0.531993 0.524461
1 1 0.436997 0.545546 0.500569
5 2 0.411705 0.554745 0.494632
4 2 0.441806 0.528066 0.479901
7 2 0.481989 0.568708 0.516572
8 2 0.451073 0.598377 0.510339
2 1 0.461455 0.574908 0.499408
6 2 0.470193 0.577367 0.474369
ITEM: TIMESTEP
2600
ITEM: NUMBER OF ATOMS
8
ITEM: BOX BOUNDS pp pp pp
-2.0000000000000000e+01 2.0000000000000000e+01
-2.0000000000000000e+01 2.0000000000000000e+01
-2.0000000000000000e+01 2.0000000000000000e+01
ITEM: ATOMS id type xs ys zs
3 2 0.435965 0.533658 0.525305
1 1 0.436417 0.545427 0.500586
5 2 0.411536 0.554132 0.492411
4 2 0.445823 0.525762 0.483324
7 2 0.486352 0.567369 0.51142
8 2 0.449996 0.59678 0.510839
2 1 0.462 0.575086 0.499755
6 2 0.467471 0.580853 0.472639
ITEM: TIMESTEP
2700
ITEM: NUMBER OF ATOMS
8
ITEM: BOX BOUNDS pp pp pp
-2.0000000000000000e+01 2.0000000000000000e+01
-2.0000000000000000e+01 2.0000000000000000e+01
-2.0000000000000000e+01 2.0000000000000000e+01
ITEM: ATOMS id type xs ys zs
3 2 0.416854 0.551135 0.518474
1 1 0.437074 0.54565 0.500398
5 2 0.426146 0.543279 0.475583
4 2 0.449872 0.523039 0.508348
7 2 0.483492 0.566888 0.48574
8 2 0.465709 0.583415 0.525423
2 1 0.461716 0.57452 0.499657
6 2 0.450628 0.594879 0.485778
ITEM: TIMESTEP
2800
ITEM: NUMBER OF ATOMS
8
ITEM: BOX BOUNDS pp pp pp
-2.0000000000000000e+01 2.0000000000000000e+01
-2.0000000000000000e+01 2.0000000000000000e+01
-2.0000000000000000e+01 2.0000000000000000e+01
ITEM: ATOMS id type xs ys zs
3 2 0.413629 0.55387 0.488795
1 1 0.43685 0.545263 0.500357
5 2 0.44543 0.523522 0.485523
4 2 0.433609 0.538806 0.527128
7 2 0.46465 0.583514 0.473599
8 2 0.485063 0.566167 0.509977
2 1 0.461792 0.575013 0.49958
6 2 0.452088 0.595497 0.515719
ITEM: TIMESTEP
2900
ITEM: NUMBER OF ATOMS
8
ITEM: BOX BOUNDS pp pp pp
-2.0000000000000000e+01 2.0000000000000000e+01
-2.0000000000000000e+01 2.0000000000000000e+01
-2.0000000000000000e+01 2.0000000000000000e+01
ITEM: ATOMS id type xs ys zs
3 2 0.432154 0.536689 0.474776
1 1 0.436925 0.545672 0.500367
5 2 0.447215 0.525149 0.515057
4 2 0.414416 0.554639 0.512728
7 2 0.448491 0.597936 0.492572
8 2 0.482 0.568981 0.480794
2 1 0.461552 0.574729 0.499578
6 2 0.472149 0.576484 0.524728
ITEM: TIMESTEP
3000
ITEM: NUMBER OF ATOMS
8
ITEM: BOX BOUNDS pp pp pp
-2.0000000000000000e+01 2.0000000000000000e+01
-2.0000000000000000e+01 2.0000000000000000e+01
-2.0000000000000000e+01 2.0000000000000000e+01
ITEM: ATOMS id type xs ys zs
3 2 0.449757 0.523213 0.491663
1 1 0.436454 0.54548 0.500266
5 2 0.428067 0.541401 0.526241
4 2 0.414602 0.549905 0.483689
7 2 0.456607 0.593914 0.518578
8 2 0.459294 0.586528 0.476124
2 1 0.462089 0.574911 0.499749
6 2 0.48732 0.565039 0.503524
ITEM: TIMESTEP
3100
ITEM: NUMBER OF ATOMS
8
ITEM: BOX BOUNDS pp pp pp
-2.0000000000000000e+01 2.0000000000000000e+01
-2.0000000000000000e+01 2.0000000000000000e+01
-2.0000000000000000e+01 2.0000000000000000e+01
ITEM: ATOMS id type xs ys zs
3 2 0.444727 0.525906 0.518343
4 2 0.436645 0.533161 0.476017
1 1 0.436639 0.545636 0.500474
5 2 0.411677 0.554546 0.506948
8 2 0.447578 0.599177 0.498412
7 2 0.47788 0.575651 0.522058
2 1 0.461803 0.574761 0.499554
6 2 0.478355 0.571497 0.477892
ITEM: TIMESTEP
3200
ITEM: NUMBER OF ATOMS
8
ITEM: BOX BOUNDS pp pp pp
-2.0000000000000000e+01 2.0000000000000000e+01
-2.0000000000000000e+01 2.0000000000000000e+01
-2.0000000000000000e+01 2.0000000000000000e+01
ITEM: ATOMS id type xs ys zs
3 2 0.424036 0.544438 0.524271
4 2 0.448091 0.520376 0.496914
1 1 0.436797 0.545142 0.500484
5 2 0.417544 0.549324 0.481278
8 2 0.458963 0.589549 0.521925
7 2 0.488029 0.566413 0.499444
2 1 0.461812 0.575133 0.49943
6 2 0.458204 0.591288 0.477188
ITEM: TIMESTEP
3300
ITEM: NUMBER OF ATOMS
8
ITEM: BOX BOUNDS pp pp pp
-2.0000000000000000e+01 2.0000000000000000e+01
-2.0000000000000000e+01 2.0000000000000000e+01
-2.0000000000000000e+01 2.0000000000000000e+01
ITEM: ATOMS id type xs ys zs
3 2 0.410741 0.555086 0.504205
4 2 0.442031 0.529022 0.521682
1 1 0.436798 0.545462 0.500129
5 2 0.437241 0.528999 0.478077
8 2 0.480682 0.573362 0.520028
7 2 0.476596 0.575193 0.476851
2 1 0.461709 0.574895 0.499615
6 2 0.448797 0.59874 0.502203
ITEM: TIMESTEP
3400
ITEM: NUMBER OF ATOMS
8
ITEM: BOX BOUNDS pp pp pp
-2.0000000000000000e+01 2.0000000000000000e+01
-2.0000000000000000e+01 2.0000000000000000e+01
-2.0000000000000000e+01 2.0000000000000000e+01
ITEM: ATOMS id type xs ys zs
3 2 0.41964 0.545849 0.479483
4 2 0.421336 0.543019 0.523241
1 1 0.436451 0.545654 0.500548
5 2 0.450744 0.522196 0.499664
8 2 0.487398 0.566275 0.495474
7 2 0.457222 0.592654 0.478502
2 1 0.461858 0.574796 0.499466
6 2 0.462095 0.589304 0.523468
ITEM: TIMESTEP
3500
ITEM: NUMBER OF ATOMS
8
ITEM: BOX BOUNDS pp pp pp
-2.0000000000000000e+01 2.0000000000000000e+01
-2.0000000000000000e+01 2.0000000000000000e+01
-2.0000000000000000e+01 2.0000000000000000e+01
ITEM: ATOMS id type xs ys zs
3 2 0.439624 0.53085 0.477254
4 2 0.410336 0.552808 0.501311
1 1 0.436831 0.545522 0.500734
5 2 0.438961 0.528911 0.52229
8 2 0.474692 0.577346 0.475162
7 2 0.450278 0.598923 0.503192
2 1 0.461812 0.574733 0.499442
6 2 0.480564 0.57279 0.518696
ITEM: TIMESTEP
3600
ITEM: NUMBER OF ATOMS
8
ITEM: BOX BOUNDS pp pp pp
-2.0000000000000000e+01 2.0000000000000000e+01
-2.0000000000000000e+01 2.0000000000000000e+01
-2.0000000000000000e+01 2.0000000000000000e+01
ITEM: ATOMS id type xs ys zs
3 2 0.447143 0.519938 0.502211
4 2 0.420121 0.545886 0.478615
1 1 0.437117 0.545341 0.50038
5 2 0.419472 0.548103 0.521967
8 2 0.454731 0.593829 0.481078
7 2 0.463483 0.587556 0.524331
2 1 0.461631 0.574734 0.499503
6 2 0.488257 0.568451 0.493194
ITEM: TIMESTEP
3700
ITEM: NUMBER OF ATOMS
8
ITEM: BOX BOUNDS pp pp pp
-2.0000000000000000e+01 2.0000000000000000e+01
-2.0000000000000000e+01 2.0000000000000000e+01
-2.0000000000000000e+01 2.0000000000000000e+01
ITEM: ATOMS id type xs ys zs
3 2 0.43839 0.53293 0.524446
4 2 0.438782 0.526875 0.480194
1 1 0.436948 0.545583 0.499844
5 2 0.411236 0.553385 0.5013
8 2 0.449623 0.598968 0.504497
7 2 0.482933 0.571938 0.51655
2 1 0.461798 0.574521 0.499963
6 2 0.472267 0.579327 0.475311
ITEM: TIMESTEP
3800
ITEM: NUMBER OF ATOMS
8
ITEM: BOX BOUNDS pp pp pp
-2.0000000000000000e+01 2.0000000000000000e+01
-2.0000000000000000e+01 2.0000000000000000e+01
-2.0000000000000000e+01 2.0000000000000000e+01
ITEM: ATOMS id type xs ys zs
3 2 0.420168 0.544758 0.522045
4 2 0.451599 0.522642 0.500359
1 1 0.436635 0.545838 0.500507
5 2 0.418891 0.54238 0.479029
8 2 0.464785 0.58904 0.522529
7 2 0.487232 0.565817 0.493731
2 1 0.461629 0.574687 0.499645
6 2 0.456299 0.593768 0.480494
ITEM: TIMESTEP
3900
ITEM: NUMBER OF ATOMS
8
ITEM: BOX BOUNDS pp pp pp
-2.0000000000000000e+01 2.0000000000000000e+01
-2.0000000000000000e+01 2.0000000000000000e+01
-2.0000000000000000e+01 2.0000000000000000e+01
ITEM: ATOMS id type xs ys zs
3 2 0.409485 0.552403 0.500723
4 2 0.438678 0.526505 0.520929
1 1 0.436892 0.545625 0.50118
5 2 0.440876 0.531777 0.478148
8 2 0.481512 0.570674 0.518544
7 2 0.476349 0.57846 0.47599
2 1 0.461469 0.57475 0.499015
6 2 0.450924 0.600379 0.503344
ITEM: TIMESTEP
4000
ITEM: NUMBER OF ATOMS
8
ITEM: BOX BOUNDS pp pp pp
-2.0000000000000000e+01 2.0000000000000000e+01
-2.0000000000000000e+01 2.0000000000000000e+01
-2.0000000000000000e+01 2.0000000000000000e+01
ITEM: ATOMS id type xs ys zs
3 2 0.419411 0.548042 0.480761
4 2 0.418756 0.547469 0.52068
1 1 0.437243 0.545206 0.500503
5 2 0.447636 0.519368 0.500629
8 2 0.486861 0.56806 0.493232
7 2 0.454926 0.594749 0.482454
2 1 0.461859 0.574635 0.499491
6 2 0.461389 0.588863 0.522324
ITEM: TIMESTEP
4100
ITEM: NUMBER OF ATOMS
8
ITEM: BOX BOUNDS pp pp pp
-2.0000000000000000e+01 2.0000000000000000e+01
-2.0000000000000000e+01 2.0000000000000000e+01
-2.0000000000000000e+01 2.0000000000000000e+01
ITEM: ATOMS id type xs ys zs
3 2 0.439289 0.524446 0.481445
5 2 0.437257 0.536666 0.525375
4 2 0.411381 0.5538 0.494982
1 1 0.437065 0.545398 0.499975
7 2 0.450771 0.597535 0.510416
8 2 0.466963 0.581843 0.473419
2 1 0.461841 0.574493 0.499988
6 2 0.485656 0.571672 0.514803
ITEM: TIMESTEP
4200
ITEM: NUMBER OF ATOMS
8
ITEM: BOX BOUNDS pp pp pp
-2.0000000000000000e+01 2.0000000000000000e+01
-2.0000000000000000e+01 2.0000000000000000e+01
-2.0000000000000000e+01 2.0000000000000000e+01
ITEM: ATOMS id type xs ys zs
3 2 0.45084 0.522902 0.505976
5 2 0.416235 0.550277 0.518895
4 2 0.423663 0.540463 0.4765
1 1 0.436942 0.545965 0.500131
7 2 0.467848 0.585113 0.524745
8 2 0.451459 0.596573 0.487418
2 1 0.46161 0.574269 0.499762
6 2 0.485504 0.566546 0.487742
ITEM: TIMESTEP
4300
ITEM: NUMBER OF ATOMS
8
ITEM: BOX BOUNDS pp pp pp
-2.0000000000000000e+01 2.0000000000000000e+01
-2.0000000000000000e+01 2.0000000000000000e+01
-2.0000000000000000e+01 2.0000000000000000e+01
ITEM: ATOMS id type xs ys zs
3 2 0.442759 0.527656 0.521464
5 2 0.410735 0.552058 0.501229
4 2 0.436826 0.53254 0.476341
1 1 0.436616 0.545396 0.500856
7 2 0.478522 0.572974 0.52035
8 2 0.452426 0.600054 0.504018
2 1 0.461856 0.574982 0.499249
6 2 0.475226 0.574878 0.475354
ITEM: TIMESTEP
4400
ITEM: NUMBER OF ATOMS
8
ITEM: BOX BOUNDS pp pp pp
-2.0000000000000000e+01 2.0000000000000000e+01
-2.0000000000000000e+01 2.0000000000000000e+01
-2.0000000000000000e+01 2.0000000000000000e+01
ITEM: ATOMS id type xs ys zs
3 2 0.423757 0.546248 0.523873
5 2 0.417097 0.546741 0.4802
4 2 0.449075 0.521551 0.495341
1 1 0.436819 0.545357 0.500447
7 2 0.487816 0.564722 0.497904
8 2 0.462562 0.591437 0.522319
2 1 0.461743 0.574861 0.499684
6 2 0.455119 0.591364 0.478799
ITEM: TIMESTEP
4500
ITEM: NUMBER OF ATOMS
8
ITEM: BOX BOUNDS pp pp pp
-2.0000000000000000e+01 2.0000000000000000e+01
-2.0000000000000000e+01 2.0000000000000000e+01
-2.0000000000000000e+01 2.0000000000000000e+01
ITEM: ATOMS id type xs ys zs
3 2 0.411114 0.55608 0.504166
5 2 0.435127 0.531118 0.477571
4 2 0.443277 0.527646 0.521043
1 1 0.43659 0.545172 0.500415
7 2 0.475534 0.575492 0.475754
8 2 0.479318 0.575231 0.520425
2 1 0.462209 0.574888 0.4995
6 2 0.448229 0.598371 0.502061
ITEM: TIMESTEP
4600
ITEM: NUMBER OF ATOMS
8
ITEM: BOX BOUNDS pp pp pp
-2.0000000000000000e+01 2.0000000000000000e+01
-2.0000000000000000e+01 2.0000000000000000e+01
-2.0000000000000000e+01 2.0000000000000000e+01
ITEM: ATOMS id type xs ys zs
3 2 0.417588 0.548179 0.481765
5 2 0.449189 0.521248 0.493582
4 2 0.424608 0.546028 0.525199
1 1 0.43669 0.545508 0.500722
7 2 0.454716 0.59165 0.478399
8 2 0.488249 0.565465 0.500986
2 1 0.461982 0.574625 0.499155
6 2 0.459761 0.590514 0.521534
ITEM: TIMESTEP
4700
ITEM: NUMBER OF ATOMS
8
ITEM: BOX BOUNDS pp pp pp
-2.0000000000000000e+01 2.0000000000000000e+01
-2.0000000000000000e+01 2.0000000000000000e+01
-2.0000000000000000e+01 2.0000000000000000e+01
ITEM: ATOMS id type xs ys zs
3 2 0.433494 0.532084 0.476067
5 2 0.447312 0.526822 0.516419
4 2 0.411791 0.55501 0.507418
1 1 0.43643 0.545398 0.500512
7 2 0.449274 0.598945 0.498925
8 2 0.478604 0.569485 0.479197
2 1 0.461835 0.575129 0.499518
6 2 0.478491 0.576032 0.521612
ITEM: TIMESTEP
4800
ITEM: NUMBER OF ATOMS
8
ITEM: BOX BOUNDS pp pp pp
-2.0000000000000000e+01 2.0000000000000000e+01
-2.0000000000000000e+01 2.0000000000000000e+01
-2.0000000000000000e+01 2.0000000000000000e+01
ITEM: ATOMS id type xs ys zs
3 2 0.44911 0.523084 0.492827
5 2 0.429706 0.541762 0.527242
4 2 0.41608 0.549815 0.482984
1 1 0.436626 0.545729 0.500381
7 2 0.45882 0.592567 0.520596
8 2 0.459711 0.586654 0.47462
2 1 0.461565 0.574829 0.499628
6 2 0.486421 0.564127 0.501631
ITEM: TIMESTEP
4900
ITEM: NUMBER OF ATOMS
8
ITEM: BOX BOUNDS pp pp pp
-2.0000000000000000e+01 2.0000000000000000e+01
-2.0000000000000000e+01 2.0000000000000000e+01
-2.0000000000000000e+01 2.0000000000000000e+01
ITEM: ATOMS id type xs ys zs
3 2 0.446201 0.525004 0.517423
5 2 0.411691 0.555031 0.507906
4 2 0.434392 0.533882 0.475516
1 1 0.436347 0.545353 0.500819
7 2 0.4772 0.575944 0.522411
8 2 0.447826 0.598864 0.499005
2 1 0.462038 0.575052 0.499157
6 2 0.480225 0.57112 0.478015
ITEM: TIMESTEP
5000
ITEM: NUMBER OF ATOMS
8
ITEM: BOX BOUNDS pp pp pp
-2.0000000000000000e+01 2.0000000000000000e+01
-2.0000000000000000e+01 2.0000000000000000e+01
-2.0000000000000000e+01 2.0000000000000000e+01
ITEM: ATOMS id type xs ys zs
3 2 0.428716 0.542805 0.526011
5 2 0.417111 0.551363 0.482239
4 2 0.447229 0.521504 0.493388
1 1 0.43676 0.545709 0.500604
7 2 0.487745 0.567516 0.501491
8 2 0.457057 0.590117 0.520921
2 1 0.461714 0.574635 0.499371
6 2 0.45861 0.587248 0.476242
ITEM: TIMESTEP
5100
ITEM: NUMBER OF ATOMS
8
ITEM: BOX BOUNDS pp pp pp
-2.0000000000000000e+01 2.0000000000000000e+01
-2.0000000000000000e+01 2.0000000000000000e+01
-2.0000000000000000e+01 2.0000000000000000e+01
ITEM: ATOMS id type xs ys zs
5 2 0.432149 0.53504 0.475561
4 2 0.446075 0.524124 0.514709
3 2 0.414472 0.554518 0.514237
1 1 0.436506 0.545426 0.500183
6 2 0.44778 0.598216 0.491993
7 2 0.481928 0.570461 0.481185
8 2 0.476023 0.577161 0.523344
2 1 0.461804 0.575005 0.499731
ITEM: TIMESTEP
5200
ITEM: NUMBER OF ATOMS
8
ITEM: BOX BOUNDS pp pp pp
-2.0000000000000000e+01 2.0000000000000000e+01
-2.0000000000000000e+01 2.0000000000000000e+01
-2.0000000000000000e+01 2.0000000000000000e+01
ITEM: ATOMS id type xs ys zs
5 2 0.444429 0.526395 0.481743
4 2 0.438947 0.532913 0.524779
3 2 0.410641 0.553535 0.495918
1 1 0.436739 0.545921 0.500445
6 2 0.451838 0.597948 0.510106
7 2 0.470288 0.578255 0.473688
8 2 0.48409 0.56782 0.513832
2 1 0.461419 0.574733 0.499549
ITEM: TIMESTEP
5300
ITEM: NUMBER OF ATOMS
8
ITEM: BOX BOUNDS pp pp pp
-2.0000000000000000e+01 2.0000000000000000e+01
-2.0000000000000000e+01 2.0000000000000000e+01
-2.0000000000000000e+01 2.0000000000000000e+01
ITEM: ATOMS id type xs ys zs
5 2 0.449236 0.521858 0.496866
4 2 0.422729 0.543275 0.524422
3 2 0.420141 0.546032 0.478743
1 1 0.436383 0.54551 0.500928
6 2 0.463024 0.588118 0.52349
7 2 0.457193 0.5923 0.478676
8 2 0.487474 0.566315 0.4976
2 1 0.461812 0.575058 0.499089
ITEM: TIMESTEP
5400
ITEM: NUMBER OF ATOMS
8
ITEM: BOX BOUNDS pp pp pp
-2.0000000000000000e+01 2.0000000000000000e+01
-2.0000000000000000e+01 2.0000000000000000e+01
-2.0000000000000000e+01 2.0000000000000000e+01
ITEM: ATOMS id type xs ys zs
5 2 0.444993 0.522658 0.513807
4 2 0.413806 0.555677 0.511682
3 2 0.432821 0.535425 0.475889
1 1 0.437047 0.545884 0.50071
6 2 0.475452 0.577258 0.522627
7 2 0.446747 0.597716 0.494445
8 2 0.482732 0.571763 0.481335
2 1 0.46142 0.574465 0.499308
ITEM: TIMESTEP
5500
ITEM: NUMBER OF ATOMS
8
ITEM: BOX BOUNDS pp pp pp
-2.0000000000000000e+01 2.0000000000000000e+01
-2.0000000000000000e+01 2.0000000000000000e+01
-2.0000000000000000e+01 2.0000000000000000e+01
ITEM: ATOMS id type xs ys zs
5 2 0.44079 0.530384 0.522509
4 2 0.410479 0.554419 0.501754
3 2 0.436985 0.526843 0.479177
1 1 0.436671 0.545301 0.500033
6 2 0.483029 0.574211 0.517945
7 2 0.450397 0.599235 0.504604
8 2 0.472733 0.576378 0.475199
2 1 0.461975 0.574966 0.499867
ITEM: TIMESTEP
5600
ITEM: NUMBER OF ATOMS
8
ITEM: BOX BOUNDS pp pp pp
-2.0000000000000000e+01 2.0000000000000000e+01
-2.0000000000000000e+01 2.0000000000000000e+01
-2.0000000000000000e+01 2.0000000000000000e+01
ITEM: ATOMS id type xs ys zs
5 2 0.423961 0.543238 0.524909
4 2 0.419415 0.54257 0.47908
3 2 0.450707 0.522931 0.497565
1 1 0.436516 0.54608 0.500272
6 2 0.486459 0.564476 0.496935
7 2 0.466307 0.589213 0.523119
8 2 0.457271 0.591769 0.477878
2 1 0.461316 0.574798 0.499772
ITEM: TIMESTEP
5700
ITEM: NUMBER OF ATOMS
8
ITEM: BOX BOUNDS pp pp pp
-2.0000000000000000e+01 2.0000000000000000e+01
-2.0000000000000000e+01 2.0000000000000000e+01
-2.0000000000000000e+01 2.0000000000000000e+01
ITEM: ATOMS id type xs ys zs
5 2 0.41077 0.552549 0.505739
4 2 0.436771 0.531917 0.477285
3 2 0.44385 0.524045 0.516419
1 1 0.436541 0.545694 0.501091
6 2 0.480164 0.573728 0.478537
7 2 0.478698 0.574245 0.520114
8 2 0.450587 0.599467 0.500651
2 1 0.461566 0.575037 0.499015
ITEM: TIMESTEP
5800
ITEM: NUMBER OF ATOMS
8
ITEM: BOX BOUNDS pp pp pp
-2.0000000000000000e+01 2.0000000000000000e+01
-2.0000000000000000e+01 2.0000000000000000e+01
-2.0000000000000000e+01 2.0000000000000000e+01
ITEM: ATOMS id type xs ys zs
5 2 0.416103 0.553683 0.484931
4 2 0.44308 0.51972 0.492737
3 2 0.427589 0.541491 0.525963
1 1 0.437475 0.545623 0.500668
6 2 0.459152 0.588593 0.475817
7 2 0.488957 0.570995 0.503311
8 2 0.455011 0.591455 0.520056
2 1 0.461551 0.57427 0.499095
ITEM: TIMESTEP
5900
ITEM: NUMBER OF ATOMS
8
ITEM: BOX BOUNDS pp pp pp
-2.0000000000000000e+01 2.0000000000000000e+01
-2.0000000000000000e+01 2.0000000000000000e+01
-2.0000000000000000e+01 2.0000000000000000e+01
ITEM: ATOMS id type xs ys zs
5 2 0.429001 0.532325 0.476691
4 2 0.444712 0.524499 0.515674
3 2 0.415095 0.555518 0.51374
1 1 0.436815 0.545507 0.499737
6 2 0.446652 0.596976 0.493185
7 2 0.481298 0.572996 0.48071
8 2 0.477381 0.579824 0.522186
2 1 0.461854 0.574705 0.50008
ITEM: TIMESTEP
6000
ITEM: NUMBER OF ATOMS
8
ITEM: BOX BOUNDS pp pp pp
-2.0000000000000000e+01 2.0000000000000000e+01
-2.0000000000000000e+01 2.0000000000000000e+01
-2.0000000000000000e+01 2.0000000000000000e+01
ITEM: ATOMS id type xs ys zs
5 2 0.447769 0.526549 0.485161
4 2 0.437546 0.530904 0.523815
3 2 0.410645 0.550233 0.493182
1 1 0.436433 0.546141 0.500886
6 2 0.45479 0.597463 0.512588
7 2 0.471289 0.580915 0.474371
8 2 0.484268 0.565107 0.510021
2 1 0.461215 0.574991 0.499187
ITEM: TIMESTEP
6100
ITEM: NUMBER OF ATOMS
8
ITEM: BOX BOUNDS pp pp pp
-2.0000000000000000e+01 2.0000000000000000e+01
-2.0000000000000000e+01 2.0000000000000000e+01
-2.0000000000000000e+01 2.0000000000000000e+01
ITEM: ATOMS id type xs ys zs
5 2 0.448366 0.520819 0.503566
4 2 0.41913 0.545499 0.521568
3 2 0.423629 0.545322 0.476991
1 1 0.436983 0.545798 0.501176
6 2 0.465891 0.584783 0.524728
7 2 0.454361 0.595343 0.481884