
     Program PWSCF v.5.1.1 starts on  4Jul2020 at 16:12:16 

     This program is part of the open-source Quantum ESPRESSO suite
     for quantum simulation of materials; please cite
         "P. Giannozzi et al., J. Phys.:Condens. Matter 21 395502 (2009);
          URL http://www.quantum-espresso.org", 
     in publications or presentations arising from this work. More details at
     http://www.quantum-espresso.org/quote

     Parallel version (MPI), running on     1 processors
     Waiting for input...
     Reading input from standard input
Warning: card &IONS ignored
Warning: card / ignored
Warning: card &CELL ignored
Warning: card / ignored

     Current dimensions of program PWSCF are:
     Max number of different atomic species (ntypx) = 10
     Max number of k-points (npk) =  40000
     Max angular momentum in pseudopotentials (lmaxx) =  3

     gamma-point specific algorithms are used

     Subspace diagonalization in iterative solution of the eigenvalue problem:
     a serial algorithm will be used


     G-vector sticks info
     --------------------
     sticks:   dense  smooth     PW     G-vecs:    dense   smooth      PW
     Sum        5689    5689   1433               322453   322453   40339
     Tot        2845    2845    717



     bravais-lattice index     =            1
     lattice parameter (alat)  =      18.8973  a.u.
     unit-cell volume          =    6748.3346 (a.u.)^3
     number of atoms/cell      =            8
     number of atomic types    =            2
     number of electrons       =        14.00
     number of Kohn-Sham states=            7
     kinetic-energy cutoff     =      50.0000  Ry
     charge density cutoff     =     200.0000  Ry
     convergence threshold     =      1.0E-06
     mixing beta               =       0.2000
     number of iterations used =            8  plain     mixing
     Exchange-correlation      = PBE ( 1  4  3  4 0 0)

     celldm(1)=  18.897261  celldm(2)=   0.000000  celldm(3)=   0.000000
     celldm(4)=   0.000000  celldm(5)=   0.000000  celldm(6)=   0.000000

     crystal axes: (cart. coord. in units of alat)
               a(1) = (   1.000000   0.000000   0.000000 )  
               a(2) = (   0.000000   1.000000   0.000000 )  
               a(3) = (   0.000000   0.000000   1.000000 )  

     reciprocal axes: (cart. coord. in units 2 pi/alat)
               b(1) = (  1.000000  0.000000  0.000000 )  
               b(2) = (  0.000000  1.000000  0.000000 )  
               b(3) = (  0.000000  0.000000  1.000000 )  


     PseudoPot. # 1 for C  read from file:
     ../../pseudo-potentials/C_ONCV_PBE-1.0.upf
     MD5 check sum: 40f8c33130f0afa4272e9dcc1c4fb0df
     Pseudo is Norm-conserving, Zval =  4.0
     Generated using ONCVPSP code by D. R. Hamann
     Using radial grid of  602 points,  4 beta functions with: 
                l(1) =   0
                l(2) =   0
                l(3) =   1
                l(4) =   1

     PseudoPot. # 2 for H  read from file:
     ../../pseudo-potentials/H_ONCV_PBE-1.0.upf
     MD5 check sum: 10f92816c437af099bca1a183851adc8
     Pseudo is Norm-conserving, Zval =  1.0
     Generated using ONCVPSP code by D. R. Hamann
     Using radial grid of  602 points,  2 beta functions with: 
                l(1) =   0
                l(2) =   0

     atomic species   valence    mass     pseudopotential
        C              4.00     1.00000     C ( 1.00)
        H              1.00     1.00000     H ( 1.00)

     No symmetry found



   Cartesian axes

     site n.     atom                  positions (alat units)
         1           C   tau(   1) = (   1.7513080   2.1776800   2.0019320  )
         2           C   tau(   2) = (   1.8451840   2.3015080   1.9990160  )
         3           H   tau(   3) = (   1.6706520   2.2161080   2.0586560  )
         4           H   tau(   4) = (   1.7681880   2.0781480   2.0529120  )
         5           H   tau(   5) = (   1.7083200   2.1584720   1.9001640  )
         6           H   tau(   6) = (   1.9504200   2.2977520   2.0354840  )
         7           H   tau(   7) = (   1.8017360   2.3922160   2.0435640  )
         8           H   tau(   8) = (   1.8556240   2.3256440   1.8979080  )

     number of k points=     1
                       cart. coord. in units 2pi/alat
        k(    1) = (   0.0000000   0.0000000   0.0000000), wk =   2.0000000

     Dense  grid:   161227 G-vectors     FFT dimensions: (  90,  90,  90)

     Largest allocated arrays     est. size (Mb)     dimensions
        Kohn-Sham Wavefunctions         2.15 Mb     (   20170,    7)
        NL pseudopotentials             8.62 Mb     (   20170,   28)
        Each V/rho on FFT grid         11.12 Mb     (  729000)
        Each G-vector array             1.23 Mb     (  161227)
        G-vector shells                 0.01 Mb     (    1510)
     Largest temporary arrays     est. size (Mb)     dimensions
        Auxiliary wavefunctions         4.31 Mb     (   20170,   28)
        Each subspace H/S matrix        0.01 Mb     (      28,   28)
        Each <psi_i|beta_j> matrix      0.00 Mb     (      28,    7)
        Arrays for rho mixing          88.99 Mb     (  729000,    8)

     Initial potential from superposition of free atoms
     Check: negative starting charge=   -0.000647

     starting charge   13.97327, renormalised to   14.00000

     negative rho (up, down):  6.486E-04 0.000E+00
     Starting wfc are random

     total cpu time spent up to now is        1.9 secs

     per-process dynamical memory:   141.6 Mb

     Self-consistent Calculation

     iteration #  1     ecut=    50.00 Ry     beta=0.20
     Davidson diagonalization with overlap
     ethr =  1.00E-02,  avg # of iterations =  9.0

     negative rho (up, down):  4.486E-04 0.000E+00

     total cpu time spent up to now is        5.3 secs

     total energy              =     -29.98591846 Ry
     Harris-Foulkes estimate   =     -30.22760108 Ry
     estimated scf accuracy    <       0.94141160 Ry

     iteration #  2     ecut=    50.00 Ry     beta=0.20
     Davidson diagonalization with overlap
     ethr =  6.72E-03,  avg # of iterations =  1.0

     negative rho (up, down):  1.353E-04 0.000E+00

     total cpu time spent up to now is        7.1 secs

     total energy              =     -29.76958390 Ry
     Harris-Foulkes estimate   =     -30.00978193 Ry
     estimated scf accuracy    <       0.41711299 Ry

     iteration #  3     ecut=    50.00 Ry     beta=0.20
     Davidson diagonalization with overlap
     ethr =  2.98E-03,  avg # of iterations =  2.0

     negative rho (up, down):  1.905E-04 0.000E+00

     total cpu time spent up to now is        9.1 secs

     total energy              =     -29.94377667 Ry
     Harris-Foulkes estimate   =     -29.89236906 Ry
     estimated scf accuracy    <       0.08306219 Ry

     iteration #  4     ecut=    50.00 Ry     beta=0.20
     Davidson diagonalization with overlap
     ethr =  5.93E-04,  avg # of iterations =  2.0

     negative rho (up, down):  1.429E-05 0.000E+00

     total cpu time spent up to now is       11.1 secs

     total energy              =     -29.82308209 Ry
     Harris-Foulkes estimate   =     -29.96103761 Ry
     estimated scf accuracy    <       0.31000500 Ry

     iteration #  5     ecut=    50.00 Ry     beta=0.20
     Davidson diagonalization with overlap
     ethr =  5.93E-04,  avg # of iterations =  2.0

     negative rho (up, down):  1.028E-06 0.000E+00

     total cpu time spent up to now is       13.1 secs

     total energy              =     -29.86471877 Ry
     Harris-Foulkes estimate   =     -29.86632215 Ry
     estimated scf accuracy    <       0.00617117 Ry

     iteration #  6     ecut=    50.00 Ry     beta=0.20
     Davidson diagonalization with overlap
     ethr =  4.41E-05,  avg # of iterations =  2.0

     negative rho (up, down):  1.465E-06 0.000E+00

     total cpu time spent up to now is       15.0 secs

     total energy              =     -29.86444457 Ry
     Harris-Foulkes estimate   =     -29.86537431 Ry
     estimated scf accuracy    <       0.00193063 Ry

     iteration #  7     ecut=    50.00 Ry     beta=0.20
     Davidson diagonalization with overlap
     ethr =  1.38E-05,  avg # of iterations =  2.0

     total cpu time spent up to now is       17.0 secs

     total energy              =     -29.86491600 Ry
     Harris-Foulkes estimate   =     -29.86494208 Ry
     estimated scf accuracy    <       0.00008812 Ry

     iteration #  8     ecut=    50.00 Ry     beta=0.20
     Davidson diagonalization with overlap
     ethr =  6.29E-07,  avg # of iterations =  2.0

     total cpu time spent up to now is       19.0 secs

     total energy              =     -29.86493195 Ry
     Harris-Foulkes estimate   =     -29.86494070 Ry
     estimated scf accuracy    <       0.00002411 Ry

     iteration #  9     ecut=    50.00 Ry     beta=0.20
     Davidson diagonalization with overlap
     ethr =  1.72E-07,  avg # of iterations =  2.0

     total cpu time spent up to now is       21.0 secs

     total energy              =     -29.86493213 Ry
     Harris-Foulkes estimate   =     -29.86493376 Ry
     estimated scf accuracy    <       0.00000574 Ry

     iteration # 10     ecut=    50.00 Ry     beta=0.20
     Davidson diagonalization with overlap
     ethr =  4.10E-08,  avg # of iterations =  2.0

     total cpu time spent up to now is       22.9 secs

     total energy              =     -29.86493211 Ry
     Harris-Foulkes estimate   =     -29.86493269 Ry
     estimated scf accuracy    <       0.00000123 Ry

     iteration # 11     ecut=    50.00 Ry     beta=0.20
     Davidson diagonalization with overlap
     ethr =  8.79E-09,  avg # of iterations =  3.0

     total cpu time spent up to now is       24.7 secs

     End of self-consistent calculation

          k = 0.0000 0.0000 0.0000 ( 20170 PWs)   bands (ev):

   -18.2421 -14.9669 -10.2664  -9.9785  -8.8475  -7.8069  -7.5198

     highest occupied level (ev):    -7.5198

!    total energy              =     -29.86493244 Ry
     Harris-Foulkes estimate   =     -29.86493259 Ry
     estimated scf accuracy    <       0.00000028 Ry

     The total energy is the sum of the following terms:

     one-electron contribution =     -88.15512805 Ry
     hartree contribution      =      45.68578621 Ry
     xc contribution           =     -11.29313484 Ry
     ewald contribution        =      23.89754424 Ry

     convergence has been achieved in  11 iterations

     Forces acting on atoms (Ry/au):

     atom    1 type  1   force =    -0.00851291   -0.00983302   -0.00462338
     atom    2 type  1   force =     0.03184416   -0.02115398    0.03444054
     atom    3 type  2   force =    -0.05906819    0.00518520    0.02486503
     atom    4 type  2   force =     0.03238966    0.03824352   -0.02125719
     atom    5 type  2   force =     0.01856480   -0.00201608    0.02403493
     atom    6 type  2   force =    -0.02150987   -0.02074281    0.00585528
     atom    7 type  2   force =    -0.00753759   -0.01270362    0.01026399
     atom    8 type  2   force =     0.01382996    0.02302078   -0.07357919

     Total force =     0.135086     Total SCF correction =     0.000592


     entering subroutine stress ...

          total   stress  (Ry/bohr**3)                   (kbar)     P=   -2.08
  -0.00000434  -0.00001034  -0.00001749         -0.64     -1.52     -2.57
  -0.00001034  -0.00003829  -0.00000320         -1.52     -5.63     -0.47
  -0.00001749  -0.00000320   0.00000011         -2.57     -0.47      0.02


     init_run     :      1.78s CPU      1.90s WALL (       1 calls)
     electrons    :     22.29s CPU     22.79s WALL (       1 calls)
     forces       :      1.09s CPU      1.10s WALL (       1 calls)
     stress       :      1.23s CPU      1.26s WALL (       1 calls)

     Called by init_run:
     wfcinit      :      0.19s CPU      0.20s WALL (       1 calls)
     potinit      :      1.27s CPU      1.34s WALL (       1 calls)

     Called by electrons:
     c_bands      :      6.84s CPU      6.92s WALL (      11 calls)
     sum_band     :      1.94s CPU      1.95s WALL (      11 calls)
     v_of_rho     :     13.37s CPU     13.74s WALL (      12 calls)
     mix_rho      :      1.10s CPU      1.18s WALL (      11 calls)

     Called by c_bands:
     init_us_2    :      0.30s CPU      0.31s WALL (      23 calls)
     regterg      :      6.27s CPU      6.35s WALL (      11 calls)

     Called by *egterg:
     h_psi        :      6.05s CPU      6.11s WALL (      41 calls)
     g_psi        :      0.08s CPU      0.08s WALL (      29 calls)
     rdiaghg      :      0.01s CPU      0.01s WALL (      40 calls)

     Called by h_psi:
     add_vuspsi   :      0.09s CPU      0.09s WALL (      41 calls)

     General routines
     calbec       :      0.12s CPU      0.13s WALL (      46 calls)
     fft          :      3.53s CPU      3.66s WALL (     139 calls)
     fftw         :      5.53s CPU      5.56s WALL (     332 calls)

     Parallel routines
     fft_scatter  :      2.05s CPU      2.11s WALL (     471 calls)

     PWSCF        :    26.42s CPU        27.10s WALL


   This run was terminated on:  16:12:43   4Jul2020            

=------------------------------------------------------------------------------=
   JOB DONE.
=------------------------------------------------------------------------------=
