
     Program PWSCF v.5.1.1 starts on  4Jul2020 at 17:32:31 

     This program is part of the open-source Quantum ESPRESSO suite
     for quantum simulation of materials; please cite
         "P. Giannozzi et al., J. Phys.:Condens. Matter 21 395502 (2009);
          URL http://www.quantum-espresso.org", 
     in publications or presentations arising from this work. More details at
     http://www.quantum-espresso.org/quote

     Parallel version (MPI), running on     1 processors
     Waiting for input...
     Reading input from standard input
Warning: card &IONS ignored
Warning: card / ignored
Warning: card &CELL ignored
Warning: card / ignored

     Current dimensions of program PWSCF are:
     Max number of different atomic species (ntypx) = 10
     Max number of k-points (npk) =  40000
     Max angular momentum in pseudopotentials (lmaxx) =  3

     gamma-point specific algorithms are used

     Subspace diagonalization in iterative solution of the eigenvalue problem:
     a serial algorithm will be used


     G-vector sticks info
     --------------------
     sticks:   dense  smooth     PW     G-vecs:    dense   smooth      PW
     Sum        5689    5689   1433               322453   322453   40339
     Tot        2845    2845    717



     bravais-lattice index     =            1
     lattice parameter (alat)  =      18.8973  a.u.
     unit-cell volume          =    6748.3346 (a.u.)^3
     number of atoms/cell      =            8
     number of atomic types    =            2
     number of electrons       =        14.00
     number of Kohn-Sham states=            7
     kinetic-energy cutoff     =      50.0000  Ry
     charge density cutoff     =     200.0000  Ry
     convergence threshold     =      1.0E-06
     mixing beta               =       0.2000
     number of iterations used =            8  plain     mixing
     Exchange-correlation      = PBE ( 1  4  3  4 0 0)

     celldm(1)=  18.897261  celldm(2)=   0.000000  celldm(3)=   0.000000
     celldm(4)=   0.000000  celldm(5)=   0.000000  celldm(6)=   0.000000

     crystal axes: (cart. coord. in units of alat)
               a(1) = (   1.000000   0.000000   0.000000 )  
               a(2) = (   0.000000   1.000000   0.000000 )  
               a(3) = (   0.000000   0.000000   1.000000 )  

     reciprocal axes: (cart. coord. in units 2 pi/alat)
               b(1) = (  1.000000  0.000000  0.000000 )  
               b(2) = (  0.000000  1.000000  0.000000 )  
               b(3) = (  0.000000  0.000000  1.000000 )  


     PseudoPot. # 1 for C  read from file:
     ../../pseudo-potentials/C_ONCV_PBE-1.0.upf
     MD5 check sum: 40f8c33130f0afa4272e9dcc1c4fb0df
     Pseudo is Norm-conserving, Zval =  4.0
     Generated using ONCVPSP code by D. R. Hamann
     Using radial grid of  602 points,  4 beta functions with: 
                l(1) =   0
                l(2) =   0
                l(3) =   1
                l(4) =   1

     PseudoPot. # 2 for H  read from file:
     ../../pseudo-potentials/H_ONCV_PBE-1.0.upf
     MD5 check sum: 10f92816c437af099bca1a183851adc8
     Pseudo is Norm-conserving, Zval =  1.0
     Generated using ONCVPSP code by D. R. Hamann
     Using radial grid of  602 points,  2 beta functions with: 
                l(1) =   0
                l(2) =   0

     atomic species   valence    mass     pseudopotential
        C              4.00     1.00000     C ( 1.00)
        H              1.00     1.00000     H ( 1.00)

     No symmetry found



   Cartesian axes

     site n.     atom                  positions (alat units)
         1           C   tau(   1) = (   1.7460200   2.1825280   1.9892160  )
         2           C   tau(   2) = (   1.8481960   2.2979440   2.0132200  )
         3           H   tau(   3) = (   1.8017360   2.1158520   1.9255960  )
         4           H   tau(   4) = (   1.6584840   2.2096800   1.9268800  )
         5           H   tau(   5) = (   1.6924000   2.1364280   2.0766320  )
         6           H   tau(   6) = (   1.8527640   2.3547480   1.9173440  )
         7           H   tau(   7) = (   1.9499960   2.2658200   2.0336160  )
         8           H   tau(   8) = (   1.8266800   2.3705040   2.0909160  )

     number of k points=     1
                       cart. coord. in units 2pi/alat
        k(    1) = (   0.0000000   0.0000000   0.0000000), wk =   2.0000000

     Dense  grid:   161227 G-vectors     FFT dimensions: (  90,  90,  90)

     Largest allocated arrays     est. size (Mb)     dimensions
        Kohn-Sham Wavefunctions         2.15 Mb     (   20170,    7)
        NL pseudopotentials             8.62 Mb     (   20170,   28)
        Each V/rho on FFT grid         11.12 Mb     (  729000)
        Each G-vector array             1.23 Mb     (  161227)
        G-vector shells                 0.01 Mb     (    1510)
     Largest temporary arrays     est. size (Mb)     dimensions
        Auxiliary wavefunctions         4.31 Mb     (   20170,   28)
        Each subspace H/S matrix        0.01 Mb     (      28,   28)
        Each <psi_i|beta_j> matrix      0.00 Mb     (      28,    7)
        Arrays for rho mixing          88.99 Mb     (  729000,    8)

     Initial potential from superposition of free atoms
     Check: negative starting charge=   -0.000652

     starting charge   13.97327, renormalised to   14.00000

     negative rho (up, down):  6.529E-04 0.000E+00
     Starting wfc are random

     total cpu time spent up to now is        2.0 secs

     per-process dynamical memory:   141.6 Mb

     Self-consistent Calculation

     iteration #  1     ecut=    50.00 Ry     beta=0.20
     Davidson diagonalization with overlap
     ethr =  1.00E-02,  avg # of iterations =  9.0

     negative rho (up, down):  4.502E-04 0.000E+00

     total cpu time spent up to now is        6.0 secs

     total energy              =     -29.99920544 Ry
     Harris-Foulkes estimate   =     -30.23852928 Ry
     estimated scf accuracy    <       0.93028018 Ry

     iteration #  2     ecut=    50.00 Ry     beta=0.20
     Davidson diagonalization with overlap
     ethr =  6.64E-03,  avg # of iterations =  1.0

     negative rho (up, down):  1.380E-04 0.000E+00

     total cpu time spent up to now is        7.8 secs

     total energy              =     -29.79497270 Ry
     Harris-Foulkes estimate   =     -30.02424476 Ry
     estimated scf accuracy    <       0.40429545 Ry

     iteration #  3     ecut=    50.00 Ry     beta=0.20
     Davidson diagonalization with overlap
     ethr =  2.89E-03,  avg # of iterations =  2.0

     negative rho (up, down):  1.856E-04 0.000E+00

     total cpu time spent up to now is        9.8 secs

     total energy              =     -29.95366514 Ry
     Harris-Foulkes estimate   =     -29.91306854 Ry
     estimated scf accuracy    <       0.08075403 Ry

     iteration #  4     ecut=    50.00 Ry     beta=0.20
     Davidson diagonalization with overlap
     ethr =  5.77E-04,  avg # of iterations =  2.0

     negative rho (up, down):  1.932E-05 0.000E+00

     total cpu time spent up to now is       11.7 secs

     total energy              =     -29.85726045 Ry
     Harris-Foulkes estimate   =     -29.96609186 Ry
     estimated scf accuracy    <       0.25445116 Ry

     iteration #  5     ecut=    50.00 Ry     beta=0.20
     Davidson diagonalization with overlap
     ethr =  5.77E-04,  avg # of iterations =  2.0

     negative rho (up, down):  2.590E-06 0.000E+00

     total cpu time spent up to now is       13.7 secs

     total energy              =     -29.88525298 Ry
     Harris-Foulkes estimate   =     -29.88852112 Ry
     estimated scf accuracy    <       0.00905757 Ry

     iteration #  6     ecut=    50.00 Ry     beta=0.20
     Davidson diagonalization with overlap
     ethr =  6.47E-05,  avg # of iterations =  2.0

     negative rho (up, down):  3.011E-06 0.000E+00

     total cpu time spent up to now is       15.6 secs

     total energy              =     -29.88598070 Ry
     Harris-Foulkes estimate   =     -29.88631832 Ry
     estimated scf accuracy    <       0.00094412 Ry

     iteration #  7     ecut=    50.00 Ry     beta=0.20
     Davidson diagonalization with overlap
     ethr =  6.74E-06,  avg # of iterations =  2.0

     negative rho (up, down):  2.446E-08 0.000E+00

     total cpu time spent up to now is       17.7 secs

     total energy              =     -29.88611481 Ry
     Harris-Foulkes estimate   =     -29.88623166 Ry
     estimated scf accuracy    <       0.00030042 Ry

     iteration #  8     ecut=    50.00 Ry     beta=0.20
     Davidson diagonalization with overlap
     ethr =  2.15E-06,  avg # of iterations =  2.0

     negative rho (up, down):  1.463E-08 0.000E+00

     total cpu time spent up to now is       19.7 secs

     total energy              =     -29.88614257 Ry
     Harris-Foulkes estimate   =     -29.88614736 Ry
     estimated scf accuracy    <       0.00001690 Ry

     iteration #  9     ecut=    50.00 Ry     beta=0.20
     Davidson diagonalization with overlap
     ethr =  1.21E-07,  avg # of iterations =  2.0

     total cpu time spent up to now is       21.7 secs

     total energy              =     -29.88614298 Ry
     Harris-Foulkes estimate   =     -29.88614508 Ry
     estimated scf accuracy    <       0.00000613 Ry

     iteration # 10     ecut=    50.00 Ry     beta=0.20
     Davidson diagonalization with overlap
     ethr =  4.38E-08,  avg # of iterations =  2.0

     total cpu time spent up to now is       23.5 secs

     End of self-consistent calculation

          k = 0.0000 0.0000 0.0000 ( 20170 PWs)   bands (ev):

   -18.1369 -14.8996 -10.3898  -9.8673  -8.7428  -8.0169  -7.4694

     highest occupied level (ev):    -7.4694

!    total energy              =     -29.88614369 Ry
     Harris-Foulkes estimate   =     -29.88614380 Ry
     estimated scf accuracy    <       0.00000030 Ry

     The total energy is the sum of the following terms:

     one-electron contribution =     -87.76140562 Ry
     hartree contribution      =      45.48108072 Ry
     xc contribution           =     -11.26713002 Ry
     ewald contribution        =      23.66131123 Ry

     convergence has been achieved in  10 iterations

     Forces acting on atoms (Ry/au):

     atom    1 type  1   force =    -0.01950840    0.02964369    0.01393380
     atom    2 type  1   force =    -0.03219385    0.00993604   -0.03537476
     atom    3 type  2   force =     0.00003182   -0.04455779    0.00167238
     atom    4 type  2   force =     0.01425259    0.02209485    0.00070370
     atom    5 type  2   force =     0.04490810    0.00150955   -0.01213980
     atom    6 type  2   force =     0.00476940   -0.00409414    0.01717190
     atom    7 type  2   force =     0.00771308   -0.02090822    0.00150323
     atom    8 type  2   force =    -0.01997274    0.00637602    0.01252954

     Total force =     0.100580     Total SCF correction =     0.000726


     entering subroutine stress ...

          total   stress  (Ry/bohr**3)                   (kbar)     P=   -3.08
  -0.00003425  -0.00002057   0.00000085         -5.04     -3.03      0.13
  -0.00002057  -0.00000620   0.00000558         -3.03     -0.91      0.82
   0.00000085   0.00000558  -0.00002242          0.13      0.82     -3.30


     init_run     :      1.93s CPU      2.00s WALL (       1 calls)
     electrons    :     21.13s CPU     21.46s WALL (       1 calls)
     forces       :      1.00s CPU      1.01s WALL (       1 calls)
     stress       :      1.27s CPU      1.31s WALL (       1 calls)

     Called by init_run:
     wfcinit      :      0.29s CPU      0.29s WALL (       1 calls)
     potinit      :      1.31s CPU      1.34s WALL (       1 calls)

     Called by electrons:
     c_bands      :      7.14s CPU      7.20s WALL (      10 calls)
     sum_band     :      1.71s CPU      1.73s WALL (      10 calls)
     v_of_rho     :     12.44s CPU     12.64s WALL (      11 calls)
     mix_rho      :      0.80s CPU      0.87s WALL (      10 calls)

     Called by c_bands:
     init_us_2    :      0.27s CPU      0.27s WALL (      21 calls)
     regterg      :      6.63s CPU      6.69s WALL (      10 calls)

     Called by *egterg:
     h_psi        :      6.52s CPU      6.57s WALL (      37 calls)
     g_psi        :      0.07s CPU      0.07s WALL (      26 calls)
     rdiaghg      :      0.01s CPU      0.01s WALL (      36 calls)

     Called by h_psi:
     add_vuspsi   :      0.08s CPU      0.08s WALL (      37 calls)

     General routines
     calbec       :      0.11s CPU      0.12s WALL (      42 calls)
     fft          :      3.27s CPU      3.35s WALL (     128 calls)
     fftw         :      5.66s CPU      5.69s WALL (     308 calls)

     Parallel routines
     fft_scatter  :      2.22s CPU      2.26s WALL (     436 calls)

     PWSCF        :    25.36s CPU        25.82s WALL


   This run was terminated on:  17:32:57   4Jul2020            

=------------------------------------------------------------------------------=
   JOB DONE.
=------------------------------------------------------------------------------=
