 -0.25797236  -0.79814888   0.54027756   0.76841416  -0.38541357  -0.50252489  -0.76267728  -0.87697685  -0.25673952  -0.35399350   0.21191196  -0.28794644   0.35433469   0.73384682  -0.65170882   0.62400681   0.99745373   0.70660993  -0.25235092   0.52188472   0.00480949  -0.11976161  -0.40455794   0.44722243 
  0.10110111   0.64305708   0.55830608  -0.29620197   0.00839231  -0.54345518   0.24771883   0.13770579   0.19016898   0.20507131  -0.08755813  -0.19822448   0.07574163  -0.70930957   0.06505693  -0.43396304  -0.40659991  -0.00479818   0.02974526  -0.00100427  -0.31451048   0.07078662   0.41531643   0.24745632 
  0.63246494   0.95664814   0.36211868  -2.62474655   0.64836948   0.94804860  -0.19750329  -0.24659809   0.02417421   0.09289546  -0.52443422  -0.05050633   0.47109531   0.40878379   0.30479611   0.25700306  -0.40689584   0.31486889   1.92390488  -0.37642528  -1.28260025  -0.55511381  -0.45944825  -0.62089965 
 -0.22975176   0.62273232  -0.83869016  -0.04965607   0.38789750   1.93732522   0.30263125  -0.50675691   0.37290725   0.32512756  -0.22164587  -0.30526662  -0.78590198  -0.12168170   0.63940356   0.02993192   0.31596161  -0.09424632   0.28544734  -0.43269318  -0.54196009   0.12217149  -0.04381377  -1.16947310 
 -0.62890603   0.53303942   0.49394334   0.50024407   0.43438419   0.61068983   0.56904940  -0.10124072  -0.06232566   0.07431004  -0.05588301  -0.08004436   0.05909045  -0.30814754  -0.48321828  -0.17678361  -0.05678135  -0.52753599  -0.02391967  -0.22862382   0.70963636  -0.37308440  -0.21674742  -0.66114500 
 -0.25793585   2.31376181  -0.62334090  -0.69489679  -1.54129303   2.23068794  -0.48094157  -0.41776463  -1.26004532   0.04515100   0.03777916   0.51806459   0.66393926  -1.35887179   0.81222922   0.77460562  -0.00789069  -0.18116064  -0.59560444   0.44429190   0.13182775   0.54568303   0.52998675  -1.62826264 
  0.62137864  -0.94559089   0.56855189  -0.65519857  -0.21066935   0.23152273  -0.53116380   0.19303241   0.04147433  -0.18607452   0.20187389  -0.45153725   0.52224596   0.44853626   0.78866874  -0.05329649  -0.20472730  -0.29547024   0.51948589   0.84565834  -0.69343975  -0.23737737  -0.32811337  -0.18977072 
  0.51638695  -0.79258708   0.30962489   0.35958023   1.74962758   0.46175015  -0.04366799  -0.33420790  -0.18746779  -0.45095104  -0.23072492  -0.11837270   0.23522434   0.33964319   0.56748875   0.76743458  -0.31020775  -0.32809975   0.02578525   0.13499766  -0.30647041  -1.40979232  -0.55654077  -0.39845313 
  1.47271859  -0.90813801   1.35887307   0.02290049   0.08030764   0.80883743  -0.54623839   0.60880084  -0.77032629  -0.51407322  -0.65908735  -1.08915004  -0.44108549   0.56694856   0.26859484   0.48479513  -0.02794009  -0.10941115  -0.52484045   0.61593049  -0.54101829   0.04582334  -0.27682183   0.07360042 
  0.28079571  -1.24472365  -0.21478233   2.19989702  -2.39194239  -1.73637847   0.31725487   0.75067952   0.40111447  -0.79220193   0.33309230  -0.30875303  -0.34146147  -0.35950747  -0.25556247  -0.29518587   1.02649837   0.36967590  -0.83516082   1.03217277   0.83326206  -0.53393724   0.85373055   0.91142412 
  0.44815754  -0.67890920  -0.40101626   0.81669290   0.50399376  -1.46986030  -0.46497867   0.43139400   0.42210284  -0.17451822   0.06645612  -0.22046677   0.22016286  -0.37051639   0.53713208  -0.69130908  -0.22601596   0.23921057  -0.23332841   0.04036979  -0.17019183   0.07912133   0.23322814   1.06309019 
 -0.23159138   0.72975698  -1.13862613   1.33815879  -1.26079120   1.65980354  -0.72335778  -0.86664876  -0.34815532   0.63323550   1.04762017  -0.14593047  -0.77774801   0.44928420   0.65929252   0.26698713   0.29766184  -1.55104957  -0.28577927  -1.15967440  -0.28803180  -0.21990498   0.76279118   1.15269722 
 -0.45213734  -0.66863048   0.64660134   0.70342794   1.33495392  -0.08563598  -0.19751872   0.72460836   0.03862479   0.20241845   0.03594931  -0.71690279   0.42343312  -0.16089784   0.48318563  -0.80228526  -0.79923182  -0.22000988   0.82355952  -0.64198005   0.68030505  -0.70089747   0.17522861  -0.82616816 
  1.12918044  -0.22814920  -0.30823598  -0.48297942  -0.25258309  -0.97034462   0.10118930   0.73518250   0.92960331  -1.04879053   0.37238249  -0.25592602  -0.34381222  -1.08275084  -0.09901107   0.39057324  -0.41241932  -0.28207766   0.64271127   0.43970378   1.10302624  -0.38807208   0.42863368  -0.11703419 
  1.06174191  -0.19576317  -0.19050297  -1.07830387   0.33249863   1.35286314  -0.13307808   0.12805621  -0.01210317  -0.60851134  -0.37125532   0.61621022   0.10798650   0.45424410  -0.39820579   0.60466318  -0.05976356  -0.66073825  -0.45227952   0.29353317  -0.41317445   0.49778122  -0.58155006  -0.29434898 
  0.13338250  -1.02918490  -0.59346143  -0.83574034   1.23756213   0.82334818   0.09476825  -0.32657766  -0.03910456  -0.12406382   0.30116521   0.11085893  -0.87255637   0.25954253   0.59190284  -0.15294081  -0.10549666  -0.23104502   0.42298909  -0.66237012   0.19478899   1.33416125   0.32535999  -0.85728766 
  0.83577557  -0.24399229   0.31732069  -1.73310803  -0.50036903   0.10022617  -0.00212655   0.02227160  -0.18985583  -0.11851102  -0.26634899  -0.15010207   0.28674934   0.60144957  -0.05349060  -0.43697816   0.78653936   0.04666769   0.51954759  -0.05951314  -0.17459072   0.64865153  -0.34003708   0.10382467 
 -1.09227263  -0.03597090  -0.83774837   1.63002846  -1.43955815  -0.49683351  -1.04957729   0.15704428  -0.41953303   0.87152176   0.72632328   1.05907054   0.24515494   0.00200365  -0.53643275   0.27878846   0.54534210   0.58579983  -0.46120611  -0.04066238   0.57892806  -0.42243785   0.08547811   0.06674923 
 -1.18444999   1.07943721  -0.59385301   0.30598422  -1.47521332  -0.27535888   0.77479999  -0.45960277   0.30937652  -0.65438353  -0.55399050   0.43999457   0.94876491   0.20074647  -0.61093948  -0.19756680   0.66612726   0.26923376  -0.21069326   0.35437017   0.45194297   0.21754446   0.18812548   0.00960355 
 -0.37151500  -0.01617476  -1.57560301   0.36533280   0.84461165   0.12160997   0.15771842  -0.01851266  -0.29329638   0.33998232  -0.25617156   0.90255590  -0.30735975   0.02202040   0.48888009  -0.02254953   0.02363993  -0.07907506   0.15778630  -0.60542705   0.38783220  -0.31939582   0.00601379   0.04709655 
 -0.80191579   0.73146444   0.45694272   0.83138902  -0.01766599   0.20080535   0.19033302  -0.21711483   0.21185489  -0.49062997   0.02203943   0.15693887   0.52209092  -0.53357497  -0.79911355  -0.39571620   0.33427937   0.13219671   0.25226299  -0.71362824   0.23768976  -0.10781373   0.39420080  -0.59731448 
 -0.01545537  -0.01706179  -1.31821146  -0.02581148  -0.23433088   0.03349828   0.45259294  -0.25025265  -0.43936620  -0.45151231  -0.07372769   1.13380636   0.41338323   0.70126256   0.60356532   0.24315694  -0.68313660   0.95017053  -0.35187003   0.72004287   0.01699777  -0.26448391  -0.16279582  -0.98046060 
  2.13087083   2.09242473   1.35925899   0.09697579  -1.69095287  -0.06188060  -0.30389829  -0.15935415   0.19686026   1.14174153  -1.53456474  -0.82981577  -2.95707627   0.74025450  -0.69277486   0.08399999  -0.23899434   0.13975598   0.31235616   0.74916566  -0.23963582  -0.50496949   0.04202095   0.12823156 
 -1.98368027   0.23764400  -0.03863019   0.42328734   1.56146739   0.20513584  -0.09132581  -0.48125139   0.42761784   1.03437492  -0.39849659  -0.73609421   0.59991488   0.01588088  -0.25056426  -0.60926158   0.02278144  -0.25731802   0.94042839  -0.23191174   0.05730071  -0.31373787  -0.72611425   0.59255281 
 -0.25617182  -1.46415530  -0.83570409   0.92673345  -1.38097832  -1.17195935  -0.16257522  -0.88327475   0.38199838  -0.12282609   1.20129272  -0.94126939  -0.33231969   0.55367734   1.31603323   0.20273521   0.16248883   0.00774337  -0.13174599   1.20685759   0.11764431  -0.12383011   0.60409188   1.12551355 
  0.85816183   0.18183555  -0.37579407  -1.95386739   0.36837286   1.10291491  -0.34739119   0.05533125   0.77275289  -0.26234348   0.36831939  -0.40076249  -0.55993076  -0.51011013  -0.61320847   0.81082540  -0.28039796   0.07798568  -0.16256674  -0.09409256  -0.87871028   1.61711257  -0.08925839   0.31482210 
 -1.27782496  -0.42313925  -1.85891197   1.18826164   0.62806066  -0.45743097   0.15164524   0.55798212  -0.26069669   0.48346433  -0.34191655   0.26673722   0.21147719   0.05330060   1.40946554  -0.09207760  -0.10407767  -0.08257997  -0.42705991  -0.50712303   0.62463776  -0.23788619   0.13691287   0.35877882 
  0.77935160   1.28722668  -0.10457646   0.97725238  -1.29253317  -1.53160232  -0.55091495  -0.28245510  -0.09216090  -0.47912870   0.01453517   0.46416929   0.48857156  -1.06926339  -0.16451254  -1.28691635   0.26386531   0.51819057  -0.03231789   0.54036524   0.83173921   0.10410235   0.53825951   0.07875315 
  0.28704039   0.47445702   1.33936977   0.21475842   0.22907891   0.89647603   0.05229196  -0.00549237  -0.47076004  -0.48420866  -0.13752196  -0.16793930   0.01743485   0.43221958  -0.52889532  -0.32124675   0.39817777  -0.19595703  -0.74500537   0.27982898  -0.52267225   0.97893491  -1.67074792  -0.34962187 
 -0.90396178  -0.18808665  -0.73613818   1.17821971  -0.89675037   0.58595512  -0.45168251  -0.41670894   0.67296200   0.06418019   0.27599085  -0.36708089   0.70692848   0.87492563   0.49236084   0.48910146  -0.35283831  -0.41279187  -0.97692380  -0.08793839  -0.60596750  -0.10586201   0.79140618   0.37070048 
 -0.50125271   0.94906521  -0.05907142   0.04969001   0.95094648  -0.90481152   0.57615796  -1.08380267  -1.15509965   1.28877911  -0.22813172   0.60207640  -0.87310967   0.15086260   0.91844938   0.44756902  -0.48465192   0.60333238  -0.97213231  -0.20951005   0.52552668  -0.01570116  -0.04477819  -0.53040250 
 -0.38794867   1.26625015   0.45728827   2.24861567  -0.79179544   1.26757195   0.64017206  -0.62068959  -0.23450932  -0.23805666  -0.75396178  -0.90810355  -0.54401002   0.00873889   0.11228152  -0.77747342   1.11733721   0.65810519   0.08168575  -0.78381837  -0.06316666  -1.02298496   0.55793893  -1.28946739 
 -1.05523652   1.99498203   0.49158642  -0.52259203   1.26607377  -0.53969675   0.63905723  -0.65728218  -0.90098651   0.79912049  -0.29814880   0.15967554  -0.60969584  -0.52381870  -0.32143238   0.32367618   0.05656743   0.43808785   0.41570852  -1.01050821   0.38755272   0.00996196  -0.82786534   0.28521285 
 -0.41592604  -0.02611307   0.84659088   0.33090533  -0.95997077  -0.67687367  -0.16455754  -0.31853450  -0.30089808   0.36435501   0.22760027  -0.02956399  -0.22022611  -0.07278410  -0.26097977  -0.52919691   0.93744721   0.54091288   0.55376116   0.28101117   0.62027333   0.08088511  -0.06865595  -0.73946158 
 -1.55446964   2.13855352  -0.82234982   1.01365369  -1.99349645   1.15901543   0.64074156  -0.09346856  -0.26817189   0.18092590  -0.46780354   1.06499769   0.51915653  -0.95391044  -0.31000361  -0.48906315   0.51957639   0.40887352   0.50043947   0.01703376  -0.11561700  -0.81138436   0.83351506  -1.11674457 
 -0.06983942  -0.28115309  -1.22729986  -2.61426060   0.05934859   0.88856323   0.37430438  -0.23124094   0.33246110   0.38177624   0.15114722   0.01064742  -0.38800138   0.09724036   0.50404621   2.59625445  -0.61366767  -0.84075244   0.23733572   0.13198973   0.59837634  -0.51756914   0.68633607  -0.26604200 
 -0.12044732  -0.60659639  -1.36401012   1.57264111  -0.43944462  -0.03910841  -0.58621326   0.89652746   1.10728089  -0.01607500  -0.05736421   0.44242066   0.01985862  -0.23732929   0.05434472   0.16076800  -0.06253212  -0.36785145  -0.93068985   1.09326662   0.34732640  -0.09984256  -0.58652770  -0.18040294 
  0.86234861   0.10607567   0.06198730  -1.29913857  -0.43327167   0.76970074   0.54185313  -0.21055083  -0.43149170   0.11851411  -0.02192913   0.90294465  -0.63606628  -0.45557361  -0.46302438  -0.04698033   0.03189726  -0.50455837  -0.24446357  -0.04448200  -0.03895106   0.70393290   1.02783405  -0.29660718 
  0.62298480  -1.74214158   1.41650494   0.46019592   0.73470325   0.12246023   0.97752235   0.12334880   0.14231576  -0.20386341   0.75359746  -1.77214754  -1.05722655  -0.31462824   0.22544775  -0.57385735   0.06838110   0.22540790  -0.03122338  -0.31584591   0.32999644  -0.19453239   0.69258512  -0.68998522 
 -0.89943562  -0.03296581  -0.44216663   0.15713221  -0.75719930  -0.08836314  -0.36002683   0.04173401   0.34375643   0.59093739   0.07920258  -0.19480133   0.28331796  -0.38945713   0.22941007  -0.64804809   0.64941463  -0.10363184   0.77416442  -0.06761363  -0.50010857   0.10195857   0.47688490   0.75590502 
 -0.45575924   1.33971404  -0.14231294  -1.06325165  -0.33248244  -0.51599074   0.93659617  -0.78494373   0.45925413  -0.20914855   0.12646162   0.03504968  -0.24057839  -0.44979379  -0.12123047   0.97062307   0.26451425  -0.15604464   0.59021414  -0.49226776   0.56252010  -0.52869581   0.32879780  -0.12124487 
 -0.85832047  -0.20184844  -0.95767247  -1.06548131   0.62784443   0.12173184  -0.19800080  -0.07172918   0.37521918   0.04116863  -0.13628449  -0.21880687   1.33493644   0.34240275   0.19197132   0.62456808  -0.42569517  -0.15736387  -0.03700474  -0.06909998   0.09401543   0.15813417  -0.06558966   0.55090544 
 -0.01691138  -1.32658938   1.75662481   0.18398936   1.18566612   0.65642061   0.05469336  -0.01442847  -0.67780569   0.35493195   0.20285605  -0.15268499  -0.94015071  -0.15793440  -0.43408902   0.80995869   0.03795270   0.92363760  -0.53699170   0.94894874  -0.88699744   0.09048043  -0.87647137  -1.18510562 
 -0.74323132  -0.52442908   0.11584120   0.45499948   0.22656515   1.15291628   0.27568103   0.21933986  -0.54469573   1.13303117  -0.25813871   0.04928249  -0.75248135   0.25719563   0.26690640  -0.25839890   0.20958872  -0.75314546  -0.05805815  -0.03034586   0.08080592  -0.05154197  -0.09977546  -0.36791110 
  0.24226014   0.73249057   0.54680120  -0.62650129   0.48400863  -0.20116890  -0.52988160  -0.45605492   0.23405963   0.68078045  -0.33798766   0.16423564   0.00259938  -0.17153446  -0.60280299   0.02016458   0.28944076  -0.02115008   0.29120608   0.04970672   0.20712176  -0.08062800  -0.59006939  -0.32709625 
  0.22183922  -1.13866573  -0.63814706   0.50569016  -1.33073578   0.35799207   0.29625931   1.00579539   0.09499913  -0.52081154  -0.49037184   0.44733556  -0.25612811   0.18771770   0.32590172   0.37912853  -0.03728165   0.28532033   0.10025111   0.43694345  -1.16117952  -0.72622892   1.36659870   0.28777804 
  0.61678589   1.39248551  -1.20546792   0.94952441  -0.52787486  -1.29177675   0.03086265  -0.07498316   0.85961656  -1.21070575  -0.16386694  -0.04745470   0.17580659  -0.60446135   0.59125132  -0.26498194   0.25774739   0.62074615  -0.07298876   0.09027912   0.83435015  -0.22430310  -0.36932597  -0.36126456 
  1.76377708  -1.07930686  -0.56416381  -0.70994669   1.24924724  -1.69428861  -0.97227552  -0.84683359   0.38635870  -1.40771256   0.12738644   0.17405645  -0.12150172   1.28693718  -0.04668491   0.20807178   0.68057810   1.23151517   1.62550822  -0.46624777   0.58726278  -0.38592033  -0.95176049  -0.07405602 
  0.07598537  -0.22282652   0.14578520  -1.67490564   0.21799620  -0.17413512   0.04355538  -0.26365628   0.24690097  -0.49295707  -0.28546534   0.10246379   0.81608535   0.15395280  -0.44261632  -1.12645868   0.73276362   0.32991725   0.76814111   0.40550693   0.94171317   1.59055444  -0.73827142  -1.15002868 
 -0.72003258   1.50650380   1.11660959   0.29898235  -1.06796473  -0.47789251   0.59035349  -0.62587600   0.06884930  -0.07266094  -0.36441055   0.21090718   0.13663544  -0.04644992  -0.86629884   0.12605076   0.03418425  -0.74505371  -0.82747067   0.51478824   0.29354346   0.46814215   0.04922490   0.39933553 
 -0.86887919   0.92725564   3.22330930  -0.04816175   1.06683088  -0.44371803   0.89416025   0.50637356  -0.24858143   0.56801171  -1.44569201  -1.49161357  -0.37879814  -0.29802205  -1.51593895  -0.02584619  -0.27692236  -0.37302089   0.93848284  -0.33623881   0.36823017  -1.07896927  -0.14358511   0.48133341 
 -0.47027873   1.54313959   0.17564770  -2.21925042  -0.29492157   2.98074782   1.05182159  -0.32749477   1.05783770  -0.42090419  -0.71185676  -0.30795856   0.14903121  -0.52168495  -1.82752841  -0.46863066   0.63045666  -0.79107785   0.70041719  -0.15841056   0.48859264   1.67779401  -0.15922766  -1.77626104 
  0.32164758  -0.83549223  -0.49238963  -1.43206006  -0.35483194  -1.50900497  -0.48555309   0.40174851   1.16212234   0.42503980   0.67059274   0.67480394  -0.08089745  -0.57900494  -0.26755329   0.56482715   0.37339627   0.02896159   0.72859330   0.55738409  -0.02930406  -0.04159723  -0.23379224   0.43236382 
 -0.20272056  -2.02058448  -0.86588180  -0.10580262  -0.72476108  -0.18893974   1.62176882   0.33292878  -0.49569195  -0.23519297   1.30691947   0.04909814  -0.71892496   0.15689722   0.81202508  -0.32168512  -0.03803344   0.28258982   0.40609957   0.42951196  -0.30175142  -0.44354243   0.55712158   0.70855187 
  0.92129919  -1.58461547   0.15758627   1.13644662   0.90610659  -0.27325238  -0.04686181   0.20812628  -0.29111377   0.48931357  -0.10918386  -0.24130832  -1.70703456   0.74088802   0.50430923   0.36687546  -0.22272779   0.27985084  -0.28812770  -0.08341866  -0.20256501  -0.87191076   0.14482490   0.06649314 
  0.57755150   1.13752956   0.45797604  -1.18758981   0.19128895   0.86316339   0.29725689  -0.48297840  -0.67411488   0.30870469   0.08136950  -0.47359801  -0.29591015  -0.19614935   1.06007430   0.66465248  -0.27677478   0.05948691  -0.15639482  -0.15163933  -0.60133413  -0.20827078  -0.30264616  -0.69165335 
  1.25198494  -2.10449319   1.40561558  -0.05254650   1.44697550  -1.25835046  -0.24816697   0.44887051   0.07051999  -0.50499340   0.66884260  -0.46217155   0.16282513   0.41963536  -0.61854889   0.66750974  -0.35939846   0.86171740  -1.24133289  -0.05493222   1.15484434  -0.03528031  -0.46549984  -1.15362642 
 -0.21887500  -0.25281629  -0.11887149   0.81874361  -0.54388892   0.88549900  -1.51869928   0.13331642   0.63930354   0.83276893   0.98327723  -0.54654255   0.47731864  -0.05183533   0.61796088  -0.55303919  -0.53331735   0.15054481  -0.19379860  -0.32662214   0.26389693   0.35558141   0.59188612  -1.89179088 
 -0.96835100  -0.35431797   1.68484421   1.42591592  -0.70877504  -1.87137612   0.87810325  -0.05722923  -0.17186896   0.13459965  -0.11326856   0.44307860  -0.23583009   0.42501769  -0.88029588  -0.43583711   0.53560331   0.49999776  -0.64147766  -0.42820173   0.36485792  -0.15712296   0.70117154  -0.06923779 
 -0.95849033  -0.86691718  -0.93919066   2.91945498  -1.78983667   0.20150391  -0.64747757   0.87614459   0.13736409   0.06961188   0.49302546  -0.21083005   0.89545248  -0.75906361   0.54056321  -1.61345364   1.40961749  -0.85157417  -0.59396125   1.15201305   1.49848482  -0.07113654  -0.51498313  -0.37632115 
 -1.55841936   0.78691036   0.23379918   1.32553600  -1.45398713  -0.41048766   0.29801562  -0.35915292   0.80181243   0.87552135  -0.33357721  -0.95679495   0.03091947   0.49599842  -0.05432107  -0.76487968   0.50174122  -0.23592856  -0.39607281   0.39782090   0.97344793   0.18937966  -0.03575365  -0.35152756 
 -1.80972666  -0.09689274  -1.07728238   0.09091932   1.38011726  -1.59016107   1.24755777  -0.66869450   0.45134647  -0.21154378   0.17002188   0.80314580  -0.06142834   0.37704491  -0.18964088   0.44435824   0.24643586   0.08523566   0.98495744  -2.19326693   0.20327746  -0.68509423   0.78523427   1.31407894 
  1.08828641   1.35506065   0.80406085  -0.06598201  -0.06622832  -0.80990829   0.72922245  -0.87738565   0.57803281  -0.71415583  -0.74939063  -1.73262055  -1.44294274   0.20802267   0.40800347   0.34820520   0.10317033   0.07637386   0.12735071   0.06585423   0.62094927  -0.06998392  -0.03910353   0.05510834 
 -0.41676910   0.05344869   3.97019697  -0.22917378   1.43652348  -2.59140742   0.41602297   0.94974295  -1.54470642  -0.34947634  -1.28619979  -1.98610198  -0.11245970  -0.31068958  -0.50562511   0.95955348  -0.40183284   0.34092205  -0.98976436  -0.47321723   0.66115219   0.72206735   0.03222456   1.65556972 
 -0.36514408   0.60767239   1.32220849   1.67286085  -0.42021874   1.06004370  -0.48150413   0.22181685  -1.19772352   1.26018699   0.48815221  -1.36977066  -0.66510397  -0.45468504   0.51844459  -0.01519903  -0.68632193  -1.12864154  -0.45172417  -0.29582813   0.39356060  -0.95437247   0.53941239   0.40187835 
  0.58994340   0.42229747   0.39851355  -0.70231748   0.05135762  -1.37068803  -0.15713221   0.04284216   0.12175035  -1.44489985   1.03574145   0.36254882   1.10350523  -1.66271582  -0.57673132   1.11874463  -0.47795962   0.46895050  -0.41574478   0.66236292   0.84152891  -0.09209868  -0.07392644  -0.24587253 
 -0.18877545  -0.30774979   0.18850651  -0.26354958   1.24699110   1.21436519   0.08208529   0.68840323  -0.27619397  -0.45057874  -0.12155751   0.21634299   0.96936606   0.21977514  -0.45859722  -0.30755695  -1.31541180   0.24209893   0.50938123  -0.32967326  -0.72090598  -0.35037186  -0.08077661  -0.40561672 
  0.62908370   1.47610009  -1.40360987   0.83735756  -0.07299236   0.22646642   0.50518160  -0.50614242  -0.12683160  -0.15241940  -0.06941879   0.81328517  -1.04228617   0.25868507   0.62532476  -0.62990593  -0.97709349   0.67857265   0.38818855   0.20453961   0.00395512  -0.53520016  -0.31367796  -0.81716238 
 -1.36608448  -0.73342542  -2.12755900  -0.17972160   1.60330399   0.02264826   0.31131358   1.08462465   1.21842392  -0.36748661  -0.65169982   0.01085979   0.41933994  -0.62452232   0.80030834   0.07726835  -0.47964703  -0.24976491   0.12250753   0.26938545   0.14031751   0.98286354  -0.46801951   0.18476609 
 -0.57907693   0.39764350  -2.49788127   0.77903073  -1.30801681  -0.72559489   0.25542055   0.77822880   0.85926638   0.48574129   0.37045879   0.29423534  -0.18106474  -0.56220386   1.08297195  -0.07586479  -0.81936324  -0.47872221   0.28432480  -0.17662574  -0.06917094  -0.96851066   1.31987856   1.53489538 
 -0.15928859  -0.61482029   1.13213180  -1.17406868   1.30617925   0.80840703  -0.22394289   0.45135984  -0.34958767   0.05163890   0.09157778  -0.47853400   0.55213031  -0.13689950  -0.46272665   0.06447149  -0.36693485  -1.30704468   0.41243938  -0.20524923   0.44222988   0.47662008  -0.52521275   0.21512429 
  0.48282002  -0.21435708  -1.10711865   0.42325237  -0.56785204   0.41398975  -0.15099501   0.70607308   0.25207812  -0.56578797  -0.46470074   0.13761709  -0.21642192   0.11566636   0.24136386  -0.21399172   0.04737140  -0.08162121   0.36809416   0.24113452   0.48750532  -0.12697018   0.13666450  -0.34381402 
 -0.56773891   0.45789428  -0.05437069  -1.05297473   0.11512952  -1.53983291  -0.22807464   0.19812884   0.08809574   0.10880566  -0.28955518  -0.27570289   0.31246775  -0.64807149   0.46127527   1.75741517  -0.53887272   0.88522827  -0.49197543   0.72281837   0.53099437   0.16207489  -0.01747162  -0.09568716 
  1.98304109  -2.14880499  -0.15526431   0.02004683   0.08734961  -0.28400572  -0.23524542   0.46841083  -0.06512044  -0.66740484   0.38001787   0.50523662  -0.91940249   0.77495760   0.23754552  -0.31943053   0.00434952  -0.10472996  -0.05971831  -0.42704962  -0.66790363   0.19811367   0.86076918   0.53424166 
  1.22621614   0.02454162   0.62730039   1.30222799   0.63189108   1.00617180  -1.06831363  -0.18785834  -0.11891829  -0.25798136  -0.09994746  -0.70802300   0.10278621   0.30358307   0.10372671  -0.17601176  -0.32112359  -1.72534898   0.08695932   0.09644614   0.06230689  -1.21588317  -0.44753225   0.75278448 
 -1.82901425   1.10183094  -1.24476299   1.53054200   0.86973202   2.08927874   0.82409328  -0.37602496  -0.20672401   0.17494759  -0.20264882  -0.00130586   0.38051512  -0.33976815   0.52503405   0.38333227  -0.77187126  -0.98208681  -0.80556777  -0.71961658   0.26803845  -0.65884849   0.43836681  -0.44747132 
 -0.36797743   1.39458353   0.41692722  -2.94389863   0.18962674  -2.69240466   1.17410313  -0.29924743   0.69002559  -0.91573328  -0.20463345   0.43435848   0.44927314  -1.24918656  -0.70321068   0.62465062   0.47783363   1.58020321   1.44564033  -0.47303391   0.60458810   0.53394187   0.16405720  -0.33048727 
  0.94029186  -1.56171576  -0.51220146   1.20154777   0.15004268  -0.84231669   0.07350144   0.16973778  -0.04932697  -1.29307207   0.70468417   0.89766002  -0.15133671   0.23064548  -0.38192254  -0.04330650  -0.79150697  -0.20074467  -0.78881323   0.98196186   0.06615710   0.06118718   0.11615076   1.02269520 
  1.20992697   0.06922313   1.06077183  -1.81836169   0.37421516   0.66997131  -0.50447198   0.23858373  -1.02726095   0.32439300  -0.84168343  -0.37781598  -0.39091931   0.22326129   0.39935944  -0.23095195  -0.16163934  -0.34651624   0.24250208  -0.00466294  -0.06371713   1.16788288   0.10270265  -0.31479227 
 -1.30701152   0.02949046  -1.13367163  -0.53753086  -0.21994844  -0.91036740  -0.20570920  -0.17625782   0.27567512   1.07044635   0.09796026  -0.31724484   0.65675228  -0.23726965   0.53946407   0.10493101  -0.74474184  -0.06495383   0.89771119   0.60201984   1.51604565  -0.67958952   0.64874718   0.09505261 
 -1.87837619   1.26258788  -0.97395830  -0.03404078   0.96252567   0.67015771  -0.27642254   0.35920691   1.07733534   2.04130031  -0.14060342  -0.86535370   0.50812628  -1.62400182   1.17959962  -1.03735764  -0.02790487  -0.06744882   0.19333015  -0.82071049   0.36185103   0.48344042   0.02890039  -1.38218288 
 -1.32061441   1.49518739  -0.46293980   1.93396095  -1.47639962   1.80964028  -0.18550142  -0.00817043   0.25481197   0.72168580  -0.39501841   0.65109150   0.57979041  -0.38292706  -0.00512651  -0.87118572   0.52100001   0.14143285  -0.64659491  -1.08218417  -0.99917765  -0.21154095   1.32851204  -1.38973264 
 -0.83049557   0.12359768   1.80958834  -0.59554865   0.70188554  -1.38593565  -0.33794704  -0.24896170  -0.29943050  -0.08000708  -0.44115979  -0.73892036   1.56799283   0.16095595  -0.66177029   1.01998681  -0.53222901   0.11840201  -0.58227871   0.56781862   0.12024343  -0.16170259  -0.33190754   1.03782301 
 -0.23741491  -0.16594516  -0.51835666  -0.11152613   0.84747508   0.40114147   0.22161553   0.13412683   0.54688990  -0.24572546   0.04916551  -0.21867446   0.59086566  -0.21029217   0.41850536   0.00332700   0.29802128  -0.80574929   0.16687923  -0.88252707   0.23054135  -0.38802066  -0.07002454  -0.05429767 
 -0.67232540  -0.49604393   0.63301439   0.64169183   0.81834971   1.42519704   0.58337606  -0.33770793   0.00181854   0.06135918   1.25029162  -0.26339506   0.26196398   0.08214186  -0.32613235   0.11944690  -0.05088968  -0.58662489  -0.86928388  -0.68642734  -0.63250145  -0.12622868  -0.57971430  -0.25137622 
  0.61726926   0.46497765   1.08484860   1.05947652   1.89923651  -0.35038626  -0.62484268   0.36413596   0.00676507  -0.25809037  -0.05929434  -0.96537187   0.13391008  -0.30406952  -0.17251790  -0.07305972   0.14366816   0.39949186   0.00521521  -2.08741907  -0.10602399  -0.85987855  -0.42123509   0.10319450 
 -1.82790456  -0.72400647  -0.61168124   1.49261089   0.61915541  -0.69086891   0.16567005  -0.29027277   0.57910470   1.12140828  -0.17101716  -0.01480925  -0.08779467   0.80024175   0.08327802   0.04776709   0.25756895   0.42254481  -1.26137869   0.45026224   0.38368811   0.34962187  -0.94193197  -0.15125649 
 -1.23943800   0.70372233  -0.15565718   0.40244964   0.34946837  -0.67340860   0.92267601   0.33212737   0.39711771  -0.45295932  -0.09372233   0.60067747   0.89221573  -1.17660995  -0.88816908  -1.01927076  -0.10884834   0.56637778   0.37712127   0.26056762   0.14725047   0.11720542  -0.26670483   0.00581145 
 -2.43778964   2.67177985   0.39771086   1.79247770  -0.76774774  -2.87673803   0.76137708  -1.88854127   0.00966886   0.24882235  -0.54232261   1.07361060   1.06948579  -0.18901456  -0.95900301  -1.00510866   0.77782926   1.27723592   0.09426457   0.02654296   0.67547499  -0.52352945  -0.08852589   0.40203981 
  0.67312090   0.35570019   0.76876897  -0.57707867   0.74189435  -0.34512040   0.05917992   0.20034769   0.37754653  -0.04453934  -0.36598046  -0.99404009  -1.23661339  -0.08994719   0.35411614  -1.11404492  -0.14641615  -0.64155531   1.03879566  -0.87618752   1.14715883   1.20117959   0.18058883  -0.66687442 
 -0.04029909   0.43905689  -2.37155232  -0.02388702   0.50872406  -1.30989217   0.57202493  -0.10704574   0.54813200  -0.16908935  -0.12039589   0.65364665  -0.73879772   0.01177819   0.93184685  -0.23565191  -0.04321676  -0.15599425  -0.07076990  -0.35858496   1.49402422   0.70647006  -0.33031552   0.20978901 
 -0.09956951   0.67219325  -1.39626579  -1.23816968   0.90128167  -0.66654841  -0.12540850   0.27066740   0.55333821  -0.12179406  -0.76703323   1.23100095   0.62359055  -0.16732712  -0.30567054  -0.08757201  -0.13563477   0.57707764   0.65622469  -0.22086092   0.19432413   0.39269851  -0.55328602  -0.18725645 
  1.22260427   1.55236391  -0.90738185   0.33804191  -0.24585299   0.37556370  -0.89304799  -0.18664813   1.06498020   1.18902679  -1.54336431   0.35434420  -1.19507529   0.49177103  -0.67039142   0.06123140  -0.58913094  -0.07349758  -0.35505588   0.22001400  -0.47780715  -0.36772495   0.30084743   0.33418990 
  0.36782034  -0.78211219  -0.13265642  -1.34255922   1.21034451   0.67858396  -0.41305284  -0.44017738   0.01824218   0.07325204   0.09133918   0.04691297   0.23374365   0.95772646  -0.40998629   1.02414299  -0.88694576   0.12246485   0.34125913  -0.05425910  -0.14221781  -0.28460608  -0.09591573  -0.18134319 
  1.20151794  -0.87000173   0.28681876  -0.49012681  -1.22518153  -0.18705128  -0.03176202  -0.03721840   0.60784542  -0.74056483   1.13037806  -0.84247327   0.12251653  -0.47323420  -0.48915057   0.52034026  -0.52135816  -0.84863798   0.72171099  -0.19619615   0.71203288  -1.30363207   2.19281236   0.76061603 