
     Program PWSCF v.5.1.1 starts on  4Jul2020 at 16:12:16 

     This program is part of the open-source Quantum ESPRESSO suite
     for quantum simulation of materials; please cite
         "P. Giannozzi et al., J. Phys.:Condens. Matter 21 395502 (2009);
          URL http://www.quantum-espresso.org", 
     in publications or presentations arising from this work. More details at
     http://www.quantum-espresso.org/quote

     Parallel version (MPI), running on     1 processors
     Waiting for input...
     Reading input from standard input
Warning: card &IONS ignored
Warning: card / ignored
Warning: card &CELL ignored
Warning: card / ignored

     Current dimensions of program PWSCF are:
     Max number of different atomic species (ntypx) = 10
     Max number of k-points (npk) =  40000
     Max angular momentum in pseudopotentials (lmaxx) =  3

     gamma-point specific algorithms are used

     Subspace diagonalization in iterative solution of the eigenvalue problem:
     a serial algorithm will be used


     G-vector sticks info
     --------------------
     sticks:   dense  smooth     PW     G-vecs:    dense   smooth      PW
     Sum        5689    5689   1433               322453   322453   40339
     Tot        2845    2845    717



     bravais-lattice index     =            1
     lattice parameter (alat)  =      18.8973  a.u.
     unit-cell volume          =    6748.3346 (a.u.)^3
     number of atoms/cell      =            8
     number of atomic types    =            2
     number of electrons       =        14.00
     number of Kohn-Sham states=            7
     kinetic-energy cutoff     =      50.0000  Ry
     charge density cutoff     =     200.0000  Ry
     convergence threshold     =      1.0E-06
     mixing beta               =       0.2000
     number of iterations used =            8  plain     mixing
     Exchange-correlation      = PBE ( 1  4  3  4 0 0)

     celldm(1)=  18.897261  celldm(2)=   0.000000  celldm(3)=   0.000000
     celldm(4)=   0.000000  celldm(5)=   0.000000  celldm(6)=   0.000000

     crystal axes: (cart. coord. in units of alat)
               a(1) = (   1.000000   0.000000   0.000000 )  
               a(2) = (   0.000000   1.000000   0.000000 )  
               a(3) = (   0.000000   0.000000   1.000000 )  

     reciprocal axes: (cart. coord. in units 2 pi/alat)
               b(1) = (  1.000000  0.000000  0.000000 )  
               b(2) = (  0.000000  1.000000  0.000000 )  
               b(3) = (  0.000000  0.000000  1.000000 )  


     PseudoPot. # 1 for C  read from file:
     ../../pseudo-potentials/C_ONCV_PBE-1.0.upf
     MD5 check sum: 40f8c33130f0afa4272e9dcc1c4fb0df
     Pseudo is Norm-conserving, Zval =  4.0
     Generated using ONCVPSP code by D. R. Hamann
     Using radial grid of  602 points,  4 beta functions with: 
                l(1) =   0
                l(2) =   0
                l(3) =   1
                l(4) =   1

     PseudoPot. # 2 for H  read from file:
     ../../pseudo-potentials/H_ONCV_PBE-1.0.upf
     MD5 check sum: 10f92816c437af099bca1a183851adc8
     Pseudo is Norm-conserving, Zval =  1.0
     Generated using ONCVPSP code by D. R. Hamann
     Using radial grid of  602 points,  2 beta functions with: 
                l(1) =   0
                l(2) =   0

     atomic species   valence    mass     pseudopotential
        C              4.00     1.00000     C ( 1.00)
        H              1.00     1.00000     H ( 1.00)

     No symmetry found



   Cartesian axes

     site n.     atom                  positions (alat units)
         1           C   tau(   1) = (   1.7487520   2.1801320   2.0035120  )
         2           C   tau(   2) = (   1.8457640   2.3006240   1.9972480  )
         3           H   tau(   3) = (   1.6904840   2.1808280   1.9069880  )
         4           H   tau(   4) = (   1.6715800   2.1952960   2.0872760  )
         5           H   tau(   5) = (   1.7941920   2.0800120   2.0169840  )
         6           H   tau(   6) = (   1.9518640   2.2634400   2.0101680  )
         7           H   tau(   7) = (   1.8325160   2.3790680   2.0684480  )
         8           H   tau(   8) = (   1.8378400   2.3510040   1.9010640  )

     number of k points=     1
                       cart. coord. in units 2pi/alat
        k(    1) = (   0.0000000   0.0000000   0.0000000), wk =   2.0000000

     Dense  grid:   161227 G-vectors     FFT dimensions: (  90,  90,  90)

     Largest allocated arrays     est. size (Mb)     dimensions
        Kohn-Sham Wavefunctions         2.15 Mb     (   20170,    7)
        NL pseudopotentials             8.62 Mb     (   20170,   28)
        Each V/rho on FFT grid         11.12 Mb     (  729000)
        Each G-vector array             1.23 Mb     (  161227)
        G-vector shells                 0.01 Mb     (    1510)
     Largest temporary arrays     est. size (Mb)     dimensions
        Auxiliary wavefunctions         4.31 Mb     (   20170,   28)
        Each subspace H/S matrix        0.01 Mb     (      28,   28)
        Each <psi_i|beta_j> matrix      0.00 Mb     (      28,    7)
        Arrays for rho mixing          88.99 Mb     (  729000,    8)

     Initial potential from superposition of free atoms
     Check: negative starting charge=   -0.000631

     starting charge   13.97327, renormalised to   14.00000

     negative rho (up, down):  6.320E-04 0.000E+00
     Starting wfc are random

     total cpu time spent up to now is        2.1 secs

     per-process dynamical memory:   141.6 Mb

     Self-consistent Calculation

     iteration #  1     ecut=    50.00 Ry     beta=0.20
     Davidson diagonalization with overlap
     ethr =  1.00E-02,  avg # of iterations =  9.0

     negative rho (up, down):  4.451E-04 0.000E+00

     total cpu time spent up to now is        5.4 secs

     total energy              =     -29.99982087 Ry
     Harris-Foulkes estimate   =     -30.23108144 Ry
     estimated scf accuracy    <       0.89993422 Ry

     iteration #  2     ecut=    50.00 Ry     beta=0.20
     Davidson diagonalization with overlap
     ethr =  6.43E-03,  avg # of iterations =  1.0

     negative rho (up, down):  1.429E-04 0.000E+00

     total cpu time spent up to now is        7.2 secs

     total energy              =     -29.80442342 Ry
     Harris-Foulkes estimate   =     -30.02331119 Ry
     estimated scf accuracy    <       0.38944875 Ry

     iteration #  3     ecut=    50.00 Ry     beta=0.20
     Davidson diagonalization with overlap
     ethr =  2.78E-03,  avg # of iterations =  2.0

     negative rho (up, down):  2.253E-04 0.000E+00

     total cpu time spent up to now is        9.2 secs

     total energy              =     -29.96577132 Ry
     Harris-Foulkes estimate   =     -29.91360757 Ry
     estimated scf accuracy    <       0.07494516 Ry

     iteration #  4     ecut=    50.00 Ry     beta=0.20
     Davidson diagonalization with overlap
     ethr =  5.35E-04,  avg # of iterations =  2.0

     negative rho (up, down):  9.999E-06 0.000E+00

     total cpu time spent up to now is       11.3 secs

     total energy              =     -29.84699341 Ry
     Harris-Foulkes estimate   =     -29.98514181 Ry
     estimated scf accuracy    <       0.31240465 Ry

     iteration #  5     ecut=    50.00 Ry     beta=0.20
     Davidson diagonalization with overlap
     ethr =  5.35E-04,  avg # of iterations =  2.0

     negative rho (up, down):  2.289E-06 0.000E+00

     total cpu time spent up to now is       13.3 secs

     total energy              =     -29.88894137 Ry
     Harris-Foulkes estimate   =     -29.88996287 Ry
     estimated scf accuracy    <       0.00556212 Ry

     iteration #  6     ecut=    50.00 Ry     beta=0.20
     Davidson diagonalization with overlap
     ethr =  3.97E-05,  avg # of iterations =  1.0

     negative rho (up, down):  5.085E-07 0.000E+00

     total cpu time spent up to now is       15.1 secs

     total energy              =     -29.88769928 Ry
     Harris-Foulkes estimate   =     -29.88933042 Ry
     estimated scf accuracy    <       0.00314430 Ry

     iteration #  7     ecut=    50.00 Ry     beta=0.20
     Davidson diagonalization with overlap
     ethr =  2.25E-05,  avg # of iterations =  2.0

     negative rho (up, down):  7.485E-08 0.000E+00

     total cpu time spent up to now is       17.1 secs

     total energy              =     -29.88867901 Ry
     Harris-Foulkes estimate   =     -29.88875538 Ry
     estimated scf accuracy    <       0.00019102 Ry

     iteration #  8     ecut=    50.00 Ry     beta=0.20
     Davidson diagonalization with overlap
     ethr =  1.36E-06,  avg # of iterations =  2.0

     negative rho (up, down):  8.378E-08 0.000E+00

     total cpu time spent up to now is       19.2 secs

     total energy              =     -29.88871327 Ry
     Harris-Foulkes estimate   =     -29.88871816 Ry
     estimated scf accuracy    <       0.00002060 Ry

     iteration #  9     ecut=    50.00 Ry     beta=0.20
     Davidson diagonalization with overlap
     ethr =  1.47E-07,  avg # of iterations =  2.0

     total cpu time spent up to now is       21.2 secs

     total energy              =     -29.88871506 Ry
     Harris-Foulkes estimate   =     -29.88871826 Ry
     estimated scf accuracy    <       0.00000871 Ry

     iteration # 10     ecut=    50.00 Ry     beta=0.20
     Davidson diagonalization with overlap
     ethr =  6.22E-08,  avg # of iterations =  2.0

     total cpu time spent up to now is       23.0 secs

     End of self-consistent calculation

          k = 0.0000 0.0000 0.0000 ( 20170 PWs)   bands (ev):

   -18.1088 -14.7080 -10.2106 -10.0419  -8.7360  -7.7101  -7.6233

     highest occupied level (ev):    -7.6233

!    total energy              =     -29.88871627 Ry
     Harris-Foulkes estimate   =     -29.88871631 Ry
     estimated scf accuracy    <       0.00000026 Ry

     The total energy is the sum of the following terms:

     one-electron contribution =     -87.47947105 Ry
     hartree contribution      =      45.34515975 Ry
     xc contribution           =     -11.23248380 Ry
     ewald contribution        =      23.47807884 Ry

     convergence has been achieved in  10 iterations

     Forces acting on atoms (Ry/au):

     atom    1 type  1   force =    -0.06061306    0.03060604    0.00909337
     atom    2 type  1   force =     0.05155531   -0.05655128   -0.01596548
     atom    3 type  2   force =     0.01159100   -0.01396887    0.03118564
     atom    4 type  2   force =     0.03405247   -0.01297413   -0.03721352
     atom    5 type  2   force =     0.00120258    0.01929133   -0.00211276
     atom    6 type  2   force =    -0.02974918    0.01951469   -0.00917619
     atom    7 type  2   force =    -0.01540483    0.01547282    0.03786122
     atom    8 type  2   force =     0.00736572   -0.00139060   -0.01367229

     Total force =     0.136750     Total SCF correction =     0.000336


     entering subroutine stress ...

          total   stress  (Ry/bohr**3)                   (kbar)     P=   -4.00
  -0.00003007   0.00000774  -0.00000154         -4.42      1.14     -0.23
   0.00000774  -0.00002812   0.00000602          1.14     -4.14      0.88
  -0.00000154   0.00000602  -0.00002331         -0.23      0.88     -3.43


     init_run     :      2.00s CPU      2.08s WALL (       1 calls)
     electrons    :     20.64s CPU     20.92s WALL (       1 calls)
     forces       :      1.06s CPU      1.07s WALL (       1 calls)
     stress       :      1.38s CPU      1.43s WALL (       1 calls)

     Called by init_run:
     wfcinit      :      0.23s CPU      0.25s WALL (       1 calls)
     potinit      :      1.41s CPU      1.46s WALL (       1 calls)

     Called by electrons:
     c_bands      :      6.66s CPU      6.69s WALL (      10 calls)
     sum_band     :      1.94s CPU      1.95s WALL (      10 calls)
     v_of_rho     :     12.21s CPU     12.39s WALL (      11 calls)
     mix_rho      :      0.93s CPU      0.98s WALL (      10 calls)

     Called by c_bands:
     init_us_2    :      0.28s CPU      0.28s WALL (      21 calls)
     regterg      :      6.14s CPU      6.17s WALL (      10 calls)

     Called by *egterg:
     h_psi        :      5.98s CPU      6.00s WALL (      36 calls)
     g_psi        :      0.08s CPU      0.08s WALL (      25 calls)
     rdiaghg      :      0.01s CPU      0.01s WALL (      35 calls)

     Called by h_psi:
     add_vuspsi   :      0.08s CPU      0.09s WALL (      36 calls)

     General routines
     calbec       :      0.11s CPU      0.11s WALL (      41 calls)
     fft          :      3.26s CPU      3.34s WALL (     128 calls)
     fftw         :      5.43s CPU      5.45s WALL (     312 calls)

     Parallel routines
     fft_scatter  :      2.04s CPU      2.07s WALL (     440 calls)

     PWSCF        :    25.12s CPU        25.55s WALL


   This run was terminated on:  16:12:41   4Jul2020            

=------------------------------------------------------------------------------=
   JOB DONE.
=------------------------------------------------------------------------------=
