
     Program PWSCF v.5.1.1 starts on  4Jul2020 at 17:33: 8 

     This program is part of the open-source Quantum ESPRESSO suite
     for quantum simulation of materials; please cite
         "P. Giannozzi et al., J. Phys.:Condens. Matter 21 395502 (2009);
          URL http://www.quantum-espresso.org", 
     in publications or presentations arising from this work. More details at
     http://www.quantum-espresso.org/quote

     Parallel version (MPI), running on     1 processors
     Waiting for input...
     Reading input from standard input
Warning: card &IONS ignored
Warning: card / ignored
Warning: card &CELL ignored
Warning: card / ignored

     Current dimensions of program PWSCF are:
     Max number of different atomic species (ntypx) = 10
     Max number of k-points (npk) =  40000
     Max angular momentum in pseudopotentials (lmaxx) =  3

     gamma-point specific algorithms are used

     Subspace diagonalization in iterative solution of the eigenvalue problem:
     a serial algorithm will be used


     G-vector sticks info
     --------------------
     sticks:   dense  smooth     PW     G-vecs:    dense   smooth      PW
     Sum        5689    5689   1433               322453   322453   40339
     Tot        2845    2845    717



     bravais-lattice index     =            1
     lattice parameter (alat)  =      18.8973  a.u.
     unit-cell volume          =    6748.3346 (a.u.)^3
     number of atoms/cell      =            8
     number of atomic types    =            2
     number of electrons       =        14.00
     number of Kohn-Sham states=            7
     kinetic-energy cutoff     =      50.0000  Ry
     charge density cutoff     =     200.0000  Ry
     convergence threshold     =      1.0E-06
     mixing beta               =       0.2000
     number of iterations used =            8  plain     mixing
     Exchange-correlation      = PBE ( 1  4  3  4 0 0)

     celldm(1)=  18.897261  celldm(2)=   0.000000  celldm(3)=   0.000000
     celldm(4)=   0.000000  celldm(5)=   0.000000  celldm(6)=   0.000000

     crystal axes: (cart. coord. in units of alat)
               a(1) = (   1.000000   0.000000   0.000000 )  
               a(2) = (   0.000000   1.000000   0.000000 )  
               a(3) = (   0.000000   0.000000   1.000000 )  

     reciprocal axes: (cart. coord. in units 2 pi/alat)
               b(1) = (  1.000000  0.000000  0.000000 )  
               b(2) = (  0.000000  1.000000  0.000000 )  
               b(3) = (  0.000000  0.000000  1.000000 )  


     PseudoPot. # 1 for C  read from file:
     ../../pseudo-potentials/C_ONCV_PBE-1.0.upf
     MD5 check sum: 40f8c33130f0afa4272e9dcc1c4fb0df
     Pseudo is Norm-conserving, Zval =  4.0
     Generated using ONCVPSP code by D. R. Hamann
     Using radial grid of  602 points,  4 beta functions with: 
                l(1) =   0
                l(2) =   0
                l(3) =   1
                l(4) =   1

     PseudoPot. # 2 for H  read from file:
     ../../pseudo-potentials/H_ONCV_PBE-1.0.upf
     MD5 check sum: 10f92816c437af099bca1a183851adc8
     Pseudo is Norm-conserving, Zval =  1.0
     Generated using ONCVPSP code by D. R. Hamann
     Using radial grid of  602 points,  2 beta functions with: 
                l(1) =   0
                l(2) =   0

     atomic species   valence    mass     pseudopotential
        C              4.00     1.00000     C ( 1.00)
        H              1.00     1.00000     H ( 1.00)

     No symmetry found



   Cartesian axes

     site n.     atom                  positions (alat units)
         1           C   tau(   1) = (   1.7408360   2.1900920   1.9832840  )
         2           C   tau(   2) = (   1.8512960   2.2930240   2.0153280  )
         3           H   tau(   3) = (   1.6640440   2.1785960   2.0611560  )
         4           H   tau(   4) = (   1.7882560   2.0917280   1.9854800  )
         5           H   tau(   5) = (   1.6926040   2.1966240   1.8834760  )
         6           H   tau(   6) = (   1.9401680   2.2740440   1.9569640  )
         7           H   tau(   7) = (   1.8822560   2.2803240   2.1162720  )
         8           H   tau(   8) = (   1.8395880   2.4001680   2.0132000  )

     number of k points=     1
                       cart. coord. in units 2pi/alat
        k(    1) = (   0.0000000   0.0000000   0.0000000), wk =   2.0000000

     Dense  grid:   161227 G-vectors     FFT dimensions: (  90,  90,  90)

     Largest allocated arrays     est. size (Mb)     dimensions
        Kohn-Sham Wavefunctions         2.15 Mb     (   20170,    7)
        NL pseudopotentials             8.62 Mb     (   20170,   28)
        Each V/rho on FFT grid         11.12 Mb     (  729000)
        Each G-vector array             1.23 Mb     (  161227)
        G-vector shells                 0.01 Mb     (    1510)
     Largest temporary arrays     est. size (Mb)     dimensions
        Auxiliary wavefunctions         4.31 Mb     (   20170,   28)
        Each subspace H/S matrix        0.01 Mb     (      28,   28)
        Each <psi_i|beta_j> matrix      0.00 Mb     (      28,    7)
        Arrays for rho mixing          88.99 Mb     (  729000,    8)

     Initial potential from superposition of free atoms
     Check: negative starting charge=   -0.000645

     starting charge   13.97327, renormalised to   14.00000

     negative rho (up, down):  6.460E-04 0.000E+00
     Starting wfc are random

     total cpu time spent up to now is        2.1 secs

     per-process dynamical memory:   141.6 Mb

     Self-consistent Calculation

     iteration #  1     ecut=    50.00 Ry     beta=0.20
     Davidson diagonalization with overlap
     ethr =  1.00E-02,  avg # of iterations =  9.0

     negative rho (up, down):  3.960E-04 0.000E+00

     total cpu time spent up to now is        5.2 secs

     total energy              =     -30.01184447 Ry
     Harris-Foulkes estimate   =     -30.25833903 Ry
     estimated scf accuracy    <       0.95801414 Ry

     iteration #  2     ecut=    50.00 Ry     beta=0.20
     Davidson diagonalization with overlap
     ethr =  6.84E-03,  avg # of iterations =  1.0

     negative rho (up, down):  1.046E-04 0.000E+00

     total cpu time spent up to now is        7.0 secs

     total energy              =     -29.78707239 Ry
     Harris-Foulkes estimate   =     -30.03742382 Ry
     estimated scf accuracy    <       0.42939991 Ry

     iteration #  3     ecut=    50.00 Ry     beta=0.20
     Davidson diagonalization with overlap
     ethr =  3.07E-03,  avg # of iterations =  2.0

     negative rho (up, down):  1.311E-04 0.000E+00

     total cpu time spent up to now is        9.0 secs

     total energy              =     -29.96823626 Ry
     Harris-Foulkes estimate   =     -29.91972840 Ry
     estimated scf accuracy    <       0.09193620 Ry

     iteration #  4     ecut=    50.00 Ry     beta=0.20
     Davidson diagonalization with overlap
     ethr =  6.57E-04,  avg # of iterations =  2.0

     negative rho (up, down):  1.391E-05 0.000E+00

     total cpu time spent up to now is       10.9 secs

     total energy              =     -29.84215241 Ry
     Harris-Foulkes estimate   =     -29.98286870 Ry
     estimated scf accuracy    <       0.29773038 Ry

     iteration #  5     ecut=    50.00 Ry     beta=0.20
     Davidson diagonalization with overlap
     ethr =  6.57E-04,  avg # of iterations =  2.0

     negative rho (up, down):  2.283E-06 0.000E+00

     total cpu time spent up to now is       12.8 secs

     total energy              =     -29.88943314 Ry
     Harris-Foulkes estimate   =     -29.88975303 Ry
     estimated scf accuracy    <       0.00328122 Ry

     iteration #  6     ecut=    50.00 Ry     beta=0.20
     Davidson diagonalization with overlap
     ethr =  2.34E-05,  avg # of iterations =  2.0

     negative rho (up, down):  1.826E-06 0.000E+00

     total cpu time spent up to now is       14.7 secs

     total energy              =     -29.88882436 Ry
     Harris-Foulkes estimate   =     -29.88998256 Ry
     estimated scf accuracy    <       0.00253860 Ry

     iteration #  7     ecut=    50.00 Ry     beta=0.20
     Davidson diagonalization with overlap
     ethr =  1.81E-05,  avg # of iterations =  2.0

     total cpu time spent up to now is       16.7 secs

     total energy              =     -29.88920228 Ry
     Harris-Foulkes estimate   =     -29.88928565 Ry
     estimated scf accuracy    <       0.00021656 Ry

     iteration #  8     ecut=    50.00 Ry     beta=0.20
     Davidson diagonalization with overlap
     ethr =  1.55E-06,  avg # of iterations =  2.0

     total cpu time spent up to now is       18.7 secs

     total energy              =     -29.88922464 Ry
     Harris-Foulkes estimate   =     -29.88923467 Ry
     estimated scf accuracy    <       0.00002328 Ry

     iteration #  9     ecut=    50.00 Ry     beta=0.20
     Davidson diagonalization with overlap
     ethr =  1.66E-07,  avg # of iterations =  2.0

     total cpu time spent up to now is       20.7 secs

     total energy              =     -29.88922751 Ry
     Harris-Foulkes estimate   =     -29.88922975 Ry
     estimated scf accuracy    <       0.00000516 Ry

     iteration # 10     ecut=    50.00 Ry     beta=0.20
     Davidson diagonalization with overlap
     ethr =  3.69E-08,  avg # of iterations =  2.0

     total cpu time spent up to now is       22.5 secs

     End of self-consistent calculation

          k = 0.0000 0.0000 0.0000 ( 20170 PWs)   bands (ev):

   -18.2439 -15.0682 -10.1979  -9.9978  -8.9137  -7.9163  -7.6661

     highest occupied level (ev):    -7.6661

!    total energy              =     -29.88922800 Ry
     Harris-Foulkes estimate   =     -29.88922813 Ry
     estimated scf accuracy    <       0.00000053 Ry

     The total energy is the sum of the following terms:

     one-electron contribution =     -88.60456258 Ry
     hartree contribution      =      45.90839522 Ry
     xc contribution           =     -11.32646122 Ry
     ewald contribution        =      24.13340058 Ry

     convergence has been achieved in  10 iterations

     Forces acting on atoms (Ry/au):

     atom    1 type  1   force =     0.00474087    0.00225390   -0.00448794
     atom    2 type  1   force =    -0.00685829   -0.02221125   -0.00821282
     atom    3 type  2   force =    -0.00493638    0.02110869   -0.00393489
     atom    4 type  2   force =     0.00945233   -0.00916103   -0.00599664
     atom    5 type  2   force =     0.00635130    0.01228938    0.01594031
     atom    6 type  2   force =     0.01598352   -0.00774435   -0.01910217
     atom    7 type  2   force =     0.01474819   -0.01994009    0.04825323
     atom    8 type  2   force =    -0.03948154    0.02340475   -0.02245910

     Total force =     0.089613     Total SCF correction =     0.000356


     entering subroutine stress ...

          total   stress  (Ry/bohr**3)                   (kbar)     P=   -1.51
  -0.00001246  -0.00001902  -0.00000204         -1.83     -2.80     -0.30
  -0.00001902  -0.00001318  -0.00000547         -2.80     -1.94     -0.80
  -0.00000204  -0.00000547  -0.00000515         -0.30     -0.80     -0.76


     init_run     :      1.96s CPU      2.02s WALL (       1 calls)
     electrons    :     20.16s CPU     20.41s WALL (       1 calls)
     forces       :      1.06s CPU      1.06s WALL (       1 calls)
     stress       :      1.37s CPU      1.40s WALL (       1 calls)

     Called by init_run:
     wfcinit      :      0.23s CPU      0.24s WALL (       1 calls)
     potinit      :      1.38s CPU      1.41s WALL (       1 calls)

     Called by electrons:
     c_bands      :      6.63s CPU      6.67s WALL (      10 calls)
     sum_band     :      1.81s CPU      1.82s WALL (      10 calls)
     v_of_rho     :     11.85s CPU     12.01s WALL (      11 calls)
     mix_rho      :      0.93s CPU      0.98s WALL (      10 calls)

     Called by c_bands:
     init_us_2    :      0.27s CPU      0.27s WALL (      21 calls)
     regterg      :      6.14s CPU      6.17s WALL (      10 calls)

     Called by *egterg:
     h_psi        :      5.98s CPU      6.01s WALL (      37 calls)
     g_psi        :      0.07s CPU      0.07s WALL (      26 calls)
     rdiaghg      :      0.01s CPU      0.01s WALL (      36 calls)

     Called by h_psi:
     add_vuspsi   :      0.09s CPU      0.09s WALL (      37 calls)

     General routines
     calbec       :      0.11s CPU      0.11s WALL (      42 calls)
     fft          :      3.17s CPU      3.24s WALL (     128 calls)
     fftw         :      5.35s CPU      5.37s WALL (     312 calls)

     Parallel routines
     fft_scatter  :      2.05s CPU      2.08s WALL (     440 calls)

     PWSCF        :    24.58s CPU        24.94s WALL


   This run was terminated on:  17:33:33   4Jul2020            

=------------------------------------------------------------------------------=
   JOB DONE.
=------------------------------------------------------------------------------=
