 -2.59080162   1.88488971   0.07360578  -1.51086573   3.01174645  -0.02258846  -2.03394826   0.89295307   0.38982593  -2.81107235   1.57244625  -0.99795174  -3.32655191   2.18043885   0.53372688  -0.71772753   2.71034608  -0.66930023  -1.16199784   3.15571334   0.96154275  -2.05037430   3.94813872  -0.36176493 
 -2.45366738   1.75136803  -0.00562264  -1.61432761   3.06370298  -0.08461861  -2.09389953   0.97834842   0.41986690  -2.74319777   1.69033310  -1.12088896  -3.35405790   2.14051366   0.65433652  -0.71598544   2.75153465  -0.57944169  -1.30949481   3.22526762   0.94647942  -1.89030992   3.96636440  -0.49709328 
 -2.50633451   1.86517847  -0.09040967  -1.51525635   3.03973731  -0.04340148  -2.06351357   1.02451646   0.37797583  -2.89950182   1.64652632  -0.96102230  -3.40791480   2.09738324   0.58290546  -0.58649181   2.70745296  -0.63650270  -1.28293542   3.13106302   1.09076246  -1.91928319   3.84568681  -0.43393221 
 -2.52852001   1.93034678  -0.01293413  -1.61332811   2.88979870  -0.03188579  -2.06328350   0.87806776   0.53050038  -2.75883447   1.50536986  -1.11754032  -3.31282833   2.09513233   0.49507389  -0.69016509   2.70941735  -0.63150805  -1.18144142   3.19203361   1.03901914  -2.05490691   3.93126872  -0.42107783 
 -2.47111111   1.86095935  -0.09188971  -1.61554732   3.06063079   0.03618235  -2.03968667   0.92148977   0.42826078  -2.91014738   1.60962478  -1.07759149  -3.44178149   2.05178485   0.54860864  -0.74307584   2.77832340  -0.48844678  -1.13288461   3.29544805   1.05988752  -2.04730956   3.91685824  -0.51495504 
 -2.42455569   1.90627169   0.04890404  -1.59633226   2.96990788  -0.03935353  -2.14787426   0.84598486   0.38177657  -2.90817060   1.50398107  -0.98565280  -3.44132013   2.05794289   0.57840535  -0.60022530   2.64098356  -0.58383316  -1.21998661   3.12496296   0.96892743  -2.00382263   3.92887784  -0.42539452 
 -2.48475481   1.81931972  -0.03661823  -1.58131026   2.97433757   0.05697208  -2.12351018   0.93916947   0.48423430  -2.77937093   1.67199287  -0.92158234  -3.45582228   2.12454044   0.64337996  -0.59918569   2.68018363  -0.62224759  -1.31418594   3.16552096   1.05226191  -2.08416661   3.95903922  -0.44933092 
 -2.60050823   1.90920551  -0.00266194  -1.63199979   3.04459841  -0.09896446  -2.00064480   0.98451664   0.53882359  -2.90842409   1.57297285  -1.10579487  -3.37545188   2.14042683   0.60002237  -0.62298493   2.81513483  -0.58655948  -1.22389705   3.27762986   1.00837825  -1.89103936   3.82581465  -0.50309457 
 -2.54641511   1.87934832   0.06130424  -1.53167177   2.94375632  -0.00607142  -2.01484531   0.99329510   0.49012316  -2.88195656   1.54727428  -0.96730651  -3.38375969   2.19140672   0.61445769  -0.65718506   2.72608688  -0.61612196  -1.23902989   3.26278904   1.01029431  -1.90603696   3.93546885  -0.50821275 
 -2.43917119   1.84643409  -0.01976158  -1.45405347   2.95743935   0.08362277  -2.10928691   0.85615411   0.36171939  -2.76401386   1.69039810  -1.07138513  -3.48566809   2.13345243   0.59824740  -0.59884232   2.76795853  -0.65128324  -1.15618302   3.21576417   1.11301972  -2.03836446   3.78345424  -0.42059503 
 -2.46029630   1.89491103  -0.07357855  -1.57115230   2.91002820  -0.07540809  -2.04046377   0.98392655   0.42471601  -2.79449864   1.63204352  -1.09519946  -3.46837761   2.18970208   0.49266750  -0.74375434   2.74451703  -0.51899088  -1.24749811   3.31104815   1.05592707  -1.98929114   3.79655052  -0.52708076 
 -2.58062110   1.88325452  -0.06043982  -1.50785405   2.95869877   0.00454648  -2.04787593   0.99303965   0.34233812  -2.88304441   1.55947820  -1.02012375  -3.38083864   2.06168891   0.58773512  -0.67309984   2.65958466  -0.67724687  -1.19775453   3.31287612   0.95128021  -1.99264140   3.89893400  -0.53278981 
 -2.49787213   1.89277384  -0.01545633  -1.53247114   2.93329614  -0.03505320  -2.01733911   0.98986902   0.34841429  -2.79443500   1.51357487  -1.02382003  -3.37871497   2.12521804   0.48261015  -0.72439561   2.67346401  -0.66862669  -1.28271937   3.30667610   1.03923169  -2.01112563   3.93020911  -0.46493552 
 -2.60852467   1.74602044   0.02220503  -1.57825111   3.07416559   0.04353370  -2.07941005   0.88126669   0.37170297  -2.79329948   1.50864733  -1.11617660  -3.41481768   2.11182625   0.52727590  -0.69463242   2.62135454  -0.58658953  -1.19483159   3.17202773   0.96097610  -1.95671004   3.93270019  -0.34475747 
 -2.60504586   1.82111674   0.06388158  -1.50884954   2.94841584  -0.05957352  -2.02984610   0.91761230   0.41532927  -2.84240126   1.69286402  -0.97164628  -3.48673497   2.17072280   0.49465802  -0.54743587   2.69669234  -0.50895294  -1.14194995   3.31550279   0.98454751  -1.90840764   3.88269385  -0.44893112 
 -2.43476285   1.93284973   0.01538459  -1.52698463   2.95256127   0.01683252  -2.12693064   0.99990848   0.43160678  -2.90996170   1.65926094  -1.08875267  -3.42156954   2.11978131   0.55431928  -0.56723567   2.70495482  -0.49320395  -1.27705829   3.26485946   0.99202364  -1.95834327   3.83978271  -0.41142146 
 -2.46071105   1.84663907  -0.04378193  -1.51297835   2.97710361   0.01990867  -2.08062820   0.88971345   0.49654323  -2.80524951   1.64376918  -1.06871221  -3.44100116   2.07278980   0.59759462  -0.69806242   2.63132984  -0.67048352  -1.21141999   3.14558616   1.10234054  -1.89879089   3.97363917  -0.35933387 
 -2.55547594   1.73764974  -0.08482856  -1.49319632   3.05644820   0.06854064  -1.98056093   0.90068959   0.48018280  -2.90353276   1.68980061  -1.06080429  -3.34854063   2.01166966   0.59163148  -0.57977394   2.77995629  -0.59067354  -1.27319160   3.12411178   1.10618902  -2.03497165   3.90129725  -0.43192785 
 -2.55614937   1.82359979   0.05927951  -1.54746429   3.02843949  -0.06842854  -2.10860432   0.99275542   0.35212633  -2.86731896   1.55529007  -1.04812934  -3.43366868   2.18293743   0.60143753  -0.71453858   2.81579221  -0.52858391  -1.20363390   3.19887320   1.07879358  -2.03787965   3.87099696  -0.42649127 
 -2.58423143   1.92437907  -0.04594147  -1.43731899   3.03443261   0.08116272  -2.17102211   0.99834480   0.34738852  -2.86486458   1.68113920  -0.93613251  -3.43744534   2.13354624   0.60883947  -0.61526118   2.64070505  -0.66030021  -1.31621981   3.22868778   1.04918397  -2.05986210   3.87338010  -0.42717295 
 -2.44861249   1.88120541  -0.06060436  -1.51037024   2.97587094   0.00252744  -2.16115713   1.03733437   0.50642120  -2.82552184   1.64787994  -1.11433532  -3.48882920   2.14852730   0.54186232  -0.58870279   2.69928627  -0.62595156  -1.15913824   3.16937140   0.92346508  -1.99854448   3.86376760  -0.37999825 
 -2.61872168   1.83912682  -0.07303917  -1.58494474   2.95568490  -0.05522306  -2.13051422   0.84510638   0.42438726  -2.81081319   1.63391528  -0.92941130  -3.34078416   2.11435181   0.51353900  -0.67669867   2.80005897  -0.64336379  -1.15527331   3.24165502   1.11462033  -1.89700773   3.90789479  -0.49426644 
 -2.56125149   1.89930970  -0.08447529  -1.57420487   2.91926518  -0.02879743  -2.01841182   0.98263345   0.37075551  -2.83005749   1.61541390  -0.96757978  -3.47309199   2.10501406   0.67005747  -0.69544679   2.64114420  -0.58325469  -1.28514238   3.31480028   1.02172645  -1.97746626   3.81721440  -0.37788643 
 -2.57430153   1.90135537  -0.07788945  -1.52603217   2.96884903   0.07105140  -2.02686485   0.93206361   0.36373863  -2.79520707   1.55876541  -1.08780634  -3.47779611   2.02563780   0.59485835  -0.68214500   2.70619953  -0.56170542  -1.18257779   3.16536803   1.03480608  -1.91201751   3.91965120  -0.52046810 
 -2.54315583   1.80848221  -0.00516940  -1.58226251   3.00987643  -0.07394199  -2.08906255   0.95093270   0.45110184  -2.77168896   1.68867570  -1.06033349  -3.41645135   2.00312120   0.65693273  -0.71363838   2.79001053  -0.54921145  -1.15625629   3.28048153   0.92326821  -1.89120884   3.92310856  -0.44464824 
 -2.59851526   1.89474591   0.09273450  -1.58576096   2.95094632   0.07552141  -2.12995672   0.95395607   0.51249202  -2.91665768   1.69489028  -0.95570380  -3.50388943   2.18570774   0.61407591  -0.69514884   2.63941543  -0.49776061  -1.22523194   3.27757338   0.97123551  -2.02608066   3.86088350  -0.40070132 
 -2.53571651   1.81770286   0.01649545  -1.51370879   3.06581567   0.08503114  -2.07928536   0.97786704   0.47213275  -2.78101989   1.69139541  -1.07527850  -3.31286092   2.07315064   0.59543568  -0.64204213   2.63426577  -0.54636866  -1.13898427   3.21241097   0.96130279  -1.98695680   3.83755614  -0.37735215 
 -2.59810775   1.91062865  -0.04148165  -1.62128437   3.03152118  -0.06944953  -2.02425968   0.85070684   0.37846549  -2.78510611   1.51148274  -1.09032881  -3.32956476   2.16861272   0.48902946  -0.56130467   2.68757937  -0.65270248  -1.27720975   3.28680436   1.11728322  -2.07334999   3.85174458  -0.39903882 
 -2.50245212   1.91830395   0.00729237  -1.59171689   2.96219713   0.02988947  -1.99888051   0.84277329   0.36815199  -2.82750747   1.55673082  -1.09649519  -3.48773870   2.15738183   0.58170388  -0.65642417   2.63609705  -0.61981745  -1.31788135   3.20752021   1.10646455  -1.96350549   3.96490001  -0.35347173 
 -2.45684146   1.75371034  -0.00887164  -1.49369507   3.03170732  -0.01380584  -2.07887994   0.85906383   0.49360951  -2.74498130   1.67225127  -1.02283184  -3.36541043   2.10657594   0.56468669  -0.69061487   2.67059837  -0.63731837  -1.13751172   3.31333841   0.98065986  -1.92913411   3.95344312  -0.42200946 
 -2.46485798   1.87097028   0.02968110  -1.48142939   2.97604572   0.04460083  -2.04712098   0.95698813   0.51057180  -2.85670451   1.68154504  -0.94104553  -3.36932963   2.15169801   0.67676870  -0.70898378   2.73769747  -0.66697795  -1.17392263   3.13735759   0.97625723  -1.97162271   3.85469396  -0.48130232 
 -2.49479040   1.90149321   0.07600922  -1.60467126   3.07655660  -0.05472111  -2.02051335   0.97256238   0.42889395  -2.87399174   1.66224682  -0.95176992  -3.37780393   2.16363891   0.51550453  -0.60268047   2.69888458  -0.63681093  -1.18748221   3.27311449   0.92334723  -1.91758152   3.96039367  -0.44255830 
 -2.52622876   1.85926569  -0.00838734  -1.45003012   2.90540953  -0.05222997  -2.06095926   0.95125746   0.47125596  -2.89672903   1.52280567  -1.09149982  -3.39193512   1.99370696   0.54631645  -0.71501704   2.81393330  -0.65503561  -1.17907338   3.22525594   0.98935921  -2.06934597   3.92046786  -0.45184049 
 -2.49993587   1.93329473   0.08505391  -1.57457275   2.94888703   0.07830203  -2.08660970   0.97948635   0.38509801  -2.81519842   1.52717018  -0.97904558  -3.36926244   2.07532349   0.49145795  -0.73545482   2.66677004  -0.64728455  -1.12457203   3.25853632   1.12051671  -2.03239560   3.96249483  -0.51538630 
 -2.59620210   1.85345856  -0.03131690  -1.59625274   3.03285998  -0.01635540  -1.98007154   1.01502291   0.40996954  -2.77209800   1.60765737  -0.95347457  -3.49268150   2.12800848   0.51172285  -0.56312890   2.67877056  -0.55834790  -1.16144547   3.20083739   1.05211324  -1.99142966   3.78619001  -0.43479456 
 -2.44321937   1.82056455  -0.05869788  -1.58467609   2.95294201  -0.06904712  -2.09225278   0.92063519   0.52026440  -2.84805518   1.60463431  -1.07578339  -3.43651145   1.99705488   0.62260991  -0.73084813   2.68658704  -0.64883626  -1.26156325   3.16981525   1.11822996  -2.00460601   3.90777686  -0.51916734 
 -2.47161638   1.78815844   0.03562489  -1.50504513   2.93527759  -0.06836652  -2.04824016   0.85182158   0.43495695  -2.74112609   1.59687699  -0.92954093  -3.31312289   2.19251168   0.61818644  -0.65634343   2.63907649  -0.48611649  -1.17421788   3.26352923   0.95493234  -1.90790024   3.82123249  -0.46894803 
 -2.50328163   1.78412884   0.03695352  -1.51890088   2.89710178  -0.00556686  -2.10321582   1.01557219   0.37747842  -2.90059857   1.68764085  -0.92888968  -3.36541359   1.99909591   0.66853607  -0.63082253   2.65602190  -0.53793355  -1.25981152   3.30106146   0.98706860  -1.90329712   3.85255647  -0.45783719 
 -2.45581875   1.76543012  -0.03393128  -1.48076681   2.88893040   0.08160934  -2.11706115   0.90050085   0.41327764  -2.89876898   1.51412955  -0.93864921  -3.48768571   2.03378337   0.57231733  -0.69927904   2.74053072  -0.60783503  -1.22141982   3.30902244   0.92317883  -1.96681224   3.78744008  -0.34656636 
 -2.55232697   1.85220016   0.08155152  -1.48802177   2.97593713  -0.09775247  -2.06974679   0.94720099   0.39155331  -2.81944013   1.60372313  -1.06129419  -3.40440875   2.19205931   0.49170599  -0.55439196   2.66439919  -0.61040787  -1.25728681   3.19071671   0.99282715  -1.90270765   3.80990261  -0.36969236 
 -2.57356057   1.82673910   0.01920275  -1.55234902   3.06893947   0.00544151  -2.00548256   1.00425436   0.35045944  -2.74831008   1.66529880  -1.07798180  -3.45604547   2.06263430   0.62429820  -0.64385178   2.68354029  -0.66551140  -1.25008910   3.14775739   1.07725632  -2.06837482   3.80644769  -0.48850121 
 -2.57685887   1.77838047   0.00397206  -1.59504770   3.05043455  -0.08455438  -2.02670027   0.95207555   0.52362803  -2.85858262   1.64906420  -1.07235353  -3.36205748   2.02034721   0.51284218  -0.59868334   2.77125625  -0.54693527  -1.12486052   3.18295718   1.12098110  -2.06665847   3.93905525  -0.35454366 
 -2.61744948   1.73840499  -0.04375356  -1.63087838   2.98865196  -0.00125334  -2.12050735   0.91688322   0.41086669  -2.85723996   1.61496584  -1.08625809  -3.34246276   2.02023868   0.48773155  -0.57379622   2.74745127  -0.57966309  -1.21080855   3.14411166   0.96858713  -1.94406922   3.85513147  -0.46741429 
 -2.58191893   1.78803269  -0.08978134  -1.44367238   3.04499840  -0.09059886  -2.13959057   1.03504581   0.53368748  -2.91516327   1.56207209  -1.07104672  -3.34765588   2.07723932   0.52345944  -0.73172768   2.66419690  -0.48200393  -1.18180535   3.12694658   0.96768440  -2.03429999   3.81431731  -0.41104127 
 -2.43016994   1.85185132  -0.00452344  -1.51402360   3.05708800   0.02710564  -2.04233610   0.97357589   0.43203572  -2.75110066   1.53263733  -1.05674088  -3.36296247   2.02704341   0.50161540  -0.72365695   2.72744930  -0.50770007  -1.31955434   3.25721678   1.07498743  -1.93989883   3.77816142  -0.43220912 
 -2.61382990   1.76397663  -0.08838161  -1.52489142   3.06382980   0.03104919  -2.07140604   0.85845256   0.34809705  -2.91505479   1.57631741  -0.94064277  -3.35481554   2.15652352   0.61503897  -0.58528786   2.68257198  -0.60753927  -1.13293197   3.17331707   1.00832621  -1.88975968   3.82586425  -0.51139051 
 -2.45411869   1.83892060  -0.03223342  -1.53508628   2.91863608  -0.06774979  -2.01430505   0.85165589   0.45345665  -2.87590466   1.53167974  -0.97117859  -3.32018677   2.07690951   0.53917705  -0.73351831   2.81537674  -0.52313581  -1.27376164   3.14551419   1.09848903  -2.00952379   3.79737872  -0.52689674 
 -2.55705521   1.73826693   0.05030173  -1.58892329   3.00390626   0.00167075  -2.06329537   1.02616811   0.49792577  -2.87990632   1.64050107  -0.96548421  -3.47110419   2.15437706   0.55184708  -0.62847926   2.76788213  -0.56991294  -1.27092775   3.14079154   0.92934412  -1.94430638   3.84895263  -0.36262869 
 -2.55451856   1.82696774   0.03693303  -1.63149647   2.88099325  -0.02943644  -2.01455214   0.91650793   0.39034335  -2.74692333   1.57657614  -1.05848549  -3.50730934   2.08722131   0.66983542  -0.61471940   2.81775725  -0.52391623  -1.14324318   3.27950682   0.96433476  -1.97261945   3.94178935  -0.46274257 
 -2.42781522   1.79931664   0.03635821  -1.61677384   2.96279517  -0.01728872  -2.13986183   0.90881378   0.39512131  -2.81992097   1.57042699  -0.95932285  -3.51029154   2.03555413   0.51782796  -0.58162265   2.77580417  -0.53974413  -1.15982782   3.21270127   0.96065765  -2.07688632   3.89838209  -0.47290204 
 -2.42366808   1.75176439  -0.00895916  -1.54773140   3.00081808   0.07820268  -2.09562109   0.86815530   0.42831083  -2.90136255   1.58698357  -1.09165359  -3.36556328   2.15289992   0.58262810  -0.70044110   2.79521918  -0.56176905  -1.22699138   3.22106101   1.03691023  -2.02344849   3.80027212  -0.35593285 
 -2.60069322   1.88248789   0.04769172  -1.58219737   2.91836987   0.03778800  -2.15371461   1.00127465   0.36261009  -2.92356118   1.64474542  -1.10865149  -3.39720793   2.03640494   0.62245052  -0.61288328   2.76445128  -0.63447663  -1.21325774   3.14050597   1.03232711  -1.93778874   3.85639183  -0.50775324 
 -2.55904296   1.93049582   0.04997805  -1.45849577   3.05121061   0.08236426  -1.98848685   0.90300817   0.40855082  -2.75653992   1.53988652  -1.10081824  -3.50144631   2.02474749   0.54293478  -0.67171993   2.81778194  -0.64913343  -1.18942221   3.21255897   1.08302693  -2.06320719   3.81508153  -0.51582206 
 -2.48853095   1.83827689   0.07865496  -1.56292242   2.96564417   0.08032260  -2.11219916   0.89130355   0.34283664  -2.91501091   1.62713161  -1.08483340  -3.37220443   2.06890294   0.53180706  -0.74181325   2.80966920  -0.53809172  -1.20520569   3.21770262   0.94119639  -1.90921273   3.83271284  -0.34932292 
 -2.53548011   1.92402647   0.06320242  -1.52733972   3.01169634   0.08596754  -1.99507578   0.83937675   0.34066097  -2.78326529   1.59294340  -1.00747262  -3.44350268   2.08259571   0.59700958  -0.61330039   2.62043087  -0.66093144  -1.19533308   3.18464247   1.04781088  -1.99641628   3.78914350  -0.47248659 
 -2.47005081   1.87947514   0.04671776  -1.46208889   2.94382837   0.06782494  -2.10337885   0.96934948   0.41845658  -2.74908190   1.51738926  -0.95889773  -3.34115451   2.06982054   0.53637010  -0.65024878   2.62844590  -0.49164602  -1.19234749   3.28049292   1.08053948  -2.07346855   3.86584613  -0.51385237 
 -2.53706253   1.87927264   0.07093213  -1.51812512   2.88769103  -0.02782587  -2.08560846   1.03724940   0.36405516  -2.85795813   1.51357357  -1.06585726  -3.34109070   2.04989636   0.58905466  -0.58251993   2.67912108  -0.66495235  -1.31785568   3.30872915   1.04272649  -1.90790594   3.81240819  -0.47806408 
 -2.59759855   1.81670295   0.05964809  -1.45068266   3.05914882  -0.05265950  -2.00161826   0.86609547   0.42820312  -2.85705768   1.64175461  -0.96254222  -3.42261407   2.06263305   0.62510584  -0.65879781   2.79310722  -0.64235246  -1.19575791   3.17558798   1.06651487  -1.92787968   3.87353747  -0.35379334 
 -2.44150048   1.80531408   0.08648491  -1.51572294   2.90539358   0.09576318  -2.08362212   0.98902924   0.53639559  -2.83410207   1.51397047  -1.09280508  -3.42912734   2.04866940   0.60743060  -0.63576479   2.74308423  -0.50756795  -1.22944892   3.23926476   1.02394532  -1.92973716   3.89361602  -0.40371815 
 -2.53339926   1.89967218  -0.04055090  -1.55369926   3.03648406  -0.00562884  -2.09115259   1.00109357   0.50806110  -2.89467746   1.68115169  -1.01550198  -3.41783151   2.02774088   0.67972430  -0.70712287   2.78989304  -0.67578073  -1.29722531   3.30147077   0.93556456  -2.05123453   3.83602968  -0.49792752 
 -2.53053768   1.82247084   0.07445854  -1.62969258   2.91537120   0.09588474  -2.14567985   0.84706369   0.48144114  -2.88352605   1.67160196  -1.04434005  -3.36404788   2.04907733   0.67713829  -0.65118093   2.79373425  -0.51753096  -1.14302731   3.13650453   1.07780325  -2.05254336   3.85832466  -0.49027920 
 -2.43343618   1.78816515   0.02257281  -1.52135560   2.99959316  -0.00847448  -2.12750361   0.88373470   0.48267945  -2.83635187   1.65935180  -0.97822731  -3.38735499   2.17348021   0.63438818  -0.73731238   2.75870977  -0.67800021  -1.19972034   3.15835953   0.92164361  -2.08528622   3.94623742  -0.42349726 
 -2.50448600   1.87081671  -0.03343761  -1.54921902   3.00459102   0.07439840  -2.15646058   1.00902627   0.35633925  -2.92132718   1.54802917  -0.96171875  -3.44664379   2.19032242   0.59486042  -0.67077079   2.70940035  -0.50941483  -1.15707036   3.17711121   1.08508295  -1.90091308   3.84096084  -0.37588447 
 -2.44889595   1.82935743   0.04614282  -1.61668093   2.90205216  -0.04842231  -2.01738957   1.01334209   0.34413115  -2.76035654   1.63154271  -1.09399621  -3.39669282   2.02463792   0.60461543  -0.67942340   2.68542238  -0.58309443  -1.32071121   3.29244178   0.92279743  -1.95283148   3.80823740  -0.38243777 
 -2.55118262   1.92043234  -0.05257357  -1.48836050   3.07062325  -0.07706124  -2.05660991   1.02512890   0.47066960  -2.81288461   1.56739169  -0.98606857  -3.46987301   2.09705641   0.59256319  -0.65874800   2.68280762  -0.51610539  -1.21291263   3.19160978   0.97842195  -1.95832987   3.94625556  -0.34409374 
 -2.51956241   1.83255015  -0.04956515  -1.58561893   2.97894499   0.00845219  -1.99246536   0.87800201   0.52575735  -2.74151051   1.68298054  -1.09909782  -3.45616517   2.02256301   0.59474128  -0.64277457   2.80843688  -0.48774815  -1.31799343   3.25403911   1.07903888  -1.94551451   3.87392151  -0.41998713 
 -2.60741936   1.90376382  -0.00108544  -1.44353156   3.00842086   0.09284603  -2.11140031   0.93097038   0.36691450  -2.74149656   1.51441600  -1.01527804  -3.47690519   2.08865977   0.49728472  -0.66935856   2.80485176  -0.53723580  -1.30257187   3.27495868   0.97110973  -1.99582508   3.77994484  -0.51107482 
 -2.48281632   1.85093291  -0.00586810  -1.51197788   2.91115006  -0.09143885  -2.06493063   0.90604058   0.42556180  -2.80822500   1.55236036  -0.95131855  -3.47503612   2.10266150   0.65848034  -0.70854257   2.63136108  -0.65510339  -1.15917578   3.27194462   1.08866738  -2.08179941   3.85863726  -0.42744030 
 -2.60541588   1.86038092  -0.01646848  -1.56856346   2.94810570   0.09756688  -2.05768367   0.86022648   0.36050035  -2.90532026   1.63711558  -1.10933097  -3.47394736   2.17749272   0.53784456  -0.68623353   2.70020299  -0.65532590  -1.30684469   3.19730737   1.08768299  -1.93470199   3.82594363  -0.52088802 
 -2.61633864   1.82221792  -0.05161011  -1.59452952   2.89063960   0.06773557  -2.11017364   1.02433572   0.43588526  -2.81786631   1.58492012  -1.03059824  -3.44363498   2.01274488   0.58612376  -0.57447965   2.68890416  -0.49022248  -1.13293642   3.22774018   1.07803609  -1.90828282   3.89391356  -0.42008564 
 -2.61490967   1.83747159  -0.04175666  -1.48497244   2.97992288  -0.07419548  -2.06861926   0.88666718   0.42721395  -2.85358352   1.64204952  -1.00071122  -3.49628651   2.11640906   0.48519586  -0.70904836   2.81283494  -0.53845343  -1.15365145   3.30043839   0.99575389  -1.95584287   3.93394654  -0.43423187 
 -2.42670616   1.93110352   0.08702281  -1.62612106   2.96806089   0.01316298  -1.97602969   0.97689592   0.48746039  -2.85762264   1.54675030  -0.95141071  -3.47301870   2.16372639   0.54624869  -0.70862417   2.77486142  -0.59872323  -1.13517710   3.21183373   1.10347296  -1.89663176   3.93568626  -0.44648234 
 -2.55177595   1.86053576   0.08921801  -1.48369868   2.98567530   0.09724500  -2.10042726   1.01707096   0.49498567  -2.82311429   1.52272392  -1.05967283  -3.47688168   2.09290615   0.49283054  -0.63422360   2.67920163  -0.53958547  -1.13701705   3.31524131   0.92407707  -1.94067483   3.86684602  -0.34081963 
 -2.43295965   1.92463946  -0.09373006  -1.61807705   3.06737277  -0.05383576  -1.97268888   0.91102663   0.40937891  -2.86616653   1.64716207  -0.96756046  -3.34891341   2.19252499   0.60918323  -0.59986520   2.63402777  -0.65364464  -1.21111789   3.15902720   1.05579619  -1.90702826   3.94282415  -0.38438168 
 -2.57819259   1.89120395  -0.04035583  -1.62991483   3.04440202  -0.02547146  -2.11528140   0.96488972   0.40309564  -2.91966005   1.53002597  -1.02554377  -3.40749708   2.00717250   0.60514178  -0.66649640   2.72071752  -0.57327774  -1.26061056   3.29927155   0.95054898  -2.02608146   3.95610392  -0.42226012 
 -2.54199930   1.81168292   0.02858996  -1.59502012   3.06224688  -0.09542052  -2.11200130   0.85961219   0.41532546  -2.79106966   1.68843295  -1.10979901  -3.45674281   2.15805646   0.53342633  -0.71403243   2.63054350  -0.62780430  -1.19799509   3.25142169   0.99445325  -1.91748429   3.78911743  -0.53178313 
 -2.59634855   1.91592160   0.06076359  -1.51446030   3.00160129  -0.08572414  -2.10560359   1.00838509   0.50294500  -2.80498394   1.57605309  -1.01791289  -3.46954403   2.06199729   0.50105728  -0.59798268   2.62219306  -0.49881856  -1.25425975   3.21812763   1.11114209  -1.99154157   3.85003772  -0.38932255 
 -2.42447809   1.93118396  -0.04095462  -1.50640270   2.91682759   0.08793758  -1.99864820   0.91845640   0.51565010  -2.87634623   1.65354044  -1.08398938  -3.45823023   2.04007776   0.59167077  -0.67654572   2.75573779  -0.52086388  -1.20978683   3.12809223   1.08749509  -2.06380394   3.78171419  -0.35006836 
 -2.48385831   1.83796133   0.05398252  -1.63545095   3.07852142  -0.05604106  -2.05018537   0.93164531   0.44846013  -2.80368031   1.61977621  -1.05619651  -3.40283599   2.13485418   0.65102726  -0.58869093   2.66108199  -0.51145906  -1.20848729   3.22562985   0.94448911  -2.08373162   3.96799932  -0.42422422 
 -2.51884104   1.91135025   0.03395528  -1.61194564   3.01236719  -0.04576769  -2.01748469   0.97382480   0.38451276  -2.86307899   1.63739943  -1.11296949  -3.42257845   2.03145182   0.49742548  -0.55337767   2.72232532  -0.60298119  -1.13053763   3.26669231   0.96276314  -1.89234346   3.85769180  -0.38128464 
 -2.47547618   1.85311207   0.02505362  -1.48315975   2.90680958  -0.05366870  -2.12773552   1.02829937   0.49091787  -2.78947148   1.68428753  -1.08999486  -3.31783734   2.14662740   0.51166836  -0.67679385   2.78166158  -0.50814173  -1.17651648   3.12119027   1.11370130  -1.91269631   3.88207432  -0.48928811 
 -2.56368704   1.78302860  -0.05318153  -1.46802640   2.93952040   0.02321433  -2.11987378   0.93655151   0.39347215  -2.84957346   1.58115007  -1.12084139  -3.37620524   2.16689966   0.64132908  -0.65062721   2.62238238  -0.50071728  -1.17346263   3.23061728   1.02522048  -2.06924732   3.90145500  -0.49918862 
 -2.57195701   1.80390869  -0.04106816  -1.58535103   3.02890790  -0.02011673  -2.06254058   0.94793602   0.46876512  -2.89850438   1.60601162  -0.93357206  -3.32989853   2.15902777   0.61588511  -0.69191639   2.62995224  -0.50443822  -1.20192853   3.22419613   1.09040747  -1.89461660   3.92648298  -0.53614161 
 -2.47934555   1.75642953   0.09217284  -1.44696864   3.00722201   0.06326709  -2.00983102   0.94201335   0.41544582  -2.91448140   1.50973632  -1.08265890  -3.38377760   2.00606231   0.67452218  -0.73832696   2.73388235  -0.58573423  -1.28384410   3.16304941   0.99301852  -1.94899523   3.85257282  -0.46635805 
 -2.54912340   1.89727487  -0.08174495  -1.54205884   2.95995495   0.01937114  -2.05945437   0.84204948   0.46060488  -2.87233076   1.59614659  -0.93994563  -3.37712182   2.11199728   0.57340512  -0.70989524   2.63154284  -0.63471451  -1.31834499   3.29842835   1.06225723  -1.94882688   3.96974343  -0.39377413 
 -2.59398108   1.87056667   0.03902448  -1.54611818   2.91930604   0.06099427  -1.97652568   0.93223379   0.51600111  -2.79071567   1.57788946  -0.92546563  -3.46600550   2.17785725   0.61439320  -0.56616495   2.66891694  -0.67133362  -1.26464924   3.21703944   1.11600148  -2.00883118   3.95949062  -0.34150944 
 -2.59492945   1.85648274  -0.01978206  -1.44535575   2.88258342  -0.09229873  -2.06112308   0.84510222   0.45829827  -2.92612566   1.52366981  -0.94368511  -3.36107340   2.15497616   0.63090182  -0.60169138   2.80557974  -0.49572989  -1.15962833   3.24665680   1.05824458  -2.03200630   3.86002570  -0.38603707 
 -2.58354575   1.79314227  -0.05698434  -1.55163577   2.99457877  -0.06957621  -2.06351293   0.87893286   0.52962759  -2.73833587   1.60268493  -0.95130266  -3.44872328   2.15811058   0.54783389  -0.59666995   2.66814761  -0.56394359  -1.18686412   3.20208731   0.94648123  -2.07843992   3.95935809  -0.44065926 
 -2.43493498   1.86357603   0.00553281  -1.56025896   2.96709275   0.02712563  -2.00507712   0.98919642   0.49986186  -2.75854394   1.52229665  -1.00130286  -3.43602563   2.15278801   0.55529881  -0.69491658   2.77474234  -0.50686241  -1.18124743   3.30749931   1.02298781  -2.05311350   3.77984758  -0.42053050 
 -2.47820378   1.80272493  -0.07579608  -1.62127679   2.97485609   0.08671155  -2.04690813   0.84338000   0.39166252  -2.80390104   1.67954907  -0.99190200  -3.42718830   2.02686392   0.61547629  -0.70130684   2.67380320  -0.52469918  -1.21743885   3.30031171   1.03797549  -2.05194032   3.94927851  -0.47955739 
 -2.61952665   1.89006628   0.06555808  -1.45714074   2.97095710  -0.03941570  -2.10941579   0.87942431   0.43511132  -2.88694901   1.67045242  -0.97371163  -3.47947335   2.12104445   0.51177053  -0.59775627   2.69252605  -0.58910779  -1.27627131   3.23750042   0.99061414  -1.96792292   3.97020276  -0.46175782 
 -2.51212726   1.83024725  -0.06554280  -1.54669258   2.91427023  -0.09443989  -2.12687928   0.84159587   0.51704036  -2.88631706   1.51899220  -0.99343751  -3.51206801   2.07310739   0.57230443  -0.72569557   2.64520512  -0.57874091  -1.15491968   3.27432019   0.92788230  -1.96600101   3.97091791  -0.44243098 
 -2.52697952   1.79093857   0.03955617  -1.58667364   2.90617253   0.04957457  -2.15194603   0.95310948   0.41489290  -2.83833408   1.50397133  -0.97803826  -3.44223698   2.02808626   0.66669698  -0.66019765   2.67968852  -0.48203817  -1.31409585   3.24448273   1.04761984  -1.95300935   3.94823608  -0.40212189 
 -2.45501883   1.87877415   0.04362172  -1.47932371   2.91385753  -0.02052856  -2.10168726   0.99869708   0.38032292  -2.93132842   1.66369309  -1.02780853  -3.36341022   2.14332662   0.59652669  -0.68729083   2.72740351  -0.63525068  -1.28397223   3.24358292   1.00830942  -1.92945450   3.91365296  -0.51749754 
 -2.48248553   1.88149443   0.08679138  -1.55000458   2.91959423   0.04370695  -1.99734815   0.88402808   0.42973223  -2.92591901   1.57330288  -0.92345692  -3.48055139   2.16504545   0.54280704  -0.64802666   2.70463572  -0.57904783  -1.26711916   3.29828217   1.00542499  -2.02093145   3.91834734  -0.34007933 