  -406.43409244
  -406.72978943
  -406.59291965
  -406.62483453
  -406.72903309
  -406.55645964
  -406.65608818
  -406.58558359
  -406.63883343
  -406.22717249
  -406.63557269
  -406.23116345
  -406.52683908
  -406.55586249
  -406.54324279
  -406.62074969
  -406.67574392
  -406.39307589
  -406.55481988
  -406.70708832
  -406.67490323
  -406.53754881
  -406.44781488
  -406.57258307
  -406.46587848
  -406.60683066
  -406.62687566
  -406.63062865
  -406.62961653
  -406.42608549
  -406.56643738
  -406.55245766
  -406.54152725
  -406.61884054
  -406.58626238
  -406.59063593
  -406.61434114
  -406.52730127
  -406.53512727
  -406.70073977
  -406.58211046
  -406.62667035
  -406.47804456
  -406.66500032
  -406.67124738
  -406.43869484
  -406.53902312
  -406.25021578
  -406.56155729
  -406.62953693
  -406.39799734
  -406.28591374
  -406.51202016
  -406.47292120
  -406.67123309
  -406.62222482
  -406.55036919
  -406.33325354
  -406.56011944
  -406.32423037
  -406.65684915
  -406.51428511
  -406.60799843
  -406.36424473
  -406.43261799
  -406.45831208
  -406.57426542
  -406.55860431
  -406.54673606
  -406.44733160
  -406.63630033
  -406.71721042
  -406.71387920
  -406.56237159
  -406.54329626
  -406.54898481
  -406.46985624
  -406.50206923
  -406.42229113
  -406.58296395
  -406.45632850
  -406.48221607
  -406.62705621
  -406.67043457
  -406.61202898
  -406.48112557
  -406.56035618
  -406.65489455
  -406.34103069
  -406.49701145
  -406.58423445
  -406.65899191
  -406.57229518
  -406.63180119
  -406.52152266
  -406.67381709
  -406.52153694
  -406.60311848
  -406.55331944
  -406.33076696
  -406.53834052
  -406.57578966
  -406.66254041
  -406.67891922
  -406.53831114
  -406.63949263
  -406.36924864
  -406.44684112
  -406.48783386
  -406.61882013
  -406.61010623
  -406.60689828
  -406.59253528
  -406.49793174
  -406.48710595
  -406.66667124
  -406.48698595
  -406.55032483
  -406.56095782
  -406.50680592
  -406.63957154
