 17.49740000  21.81520000  19.98284000 18.46192000  22.98680000  20.01052000 16.83248000  22.09304000  19.17680000 16.95448000  21.80504000  20.94280000 17.82728000  20.74816000  19.95648000 18.33224000  23.37528000  20.99532000 18.14756000  23.70676000  19.26280000 19.52196000  22.83416000  19.74504000
 17.46528000  21.81176000  19.96260000 18.47644000  22.99720000  20.03808000 17.04184000  21.64000000  18.95768000 16.61484000  21.98128000  20.65096000 17.96448000  20.91512000  20.29224000 19.49816000  22.78268000  20.40884000 18.09296000  23.80904000  20.67760000 18.61376000  23.35172000  19.00452000
 17.44708000  21.80384000  19.97456000 18.49036000  23.01040000  20.03184000 17.29212000  21.43112000  20.98884000 17.90716000  21.02920000  19.37292000 16.45696000  21.98852000  19.50456000 18.03644000  23.93864000  19.60480000 19.27516000  22.74940000  19.41164000 18.90892000  23.27960000  21.04076000
 17.48792000  21.81432000  19.99396000 18.46644000  22.98616000  19.99020000 17.82060000  20.91820000  20.48228000 17.12344000  21.55820000  18.99640000 16.59792000  22.18176000  20.46568000 18.53184000  23.49400000  19.03396000 19.46516000  22.75676000  20.37620000 18.13632000  23.67164000  20.83420000
 17.48024000  21.81228000  19.99308000 18.46756000  22.99144000  19.99804000 16.56024000  22.04012000  20.58592000 17.89680000  20.88048000  20.38508000 17.08536000  21.64840000  18.99780000 18.11168000  23.80868000  20.66032000 18.65840000  23.40288000  18.97508000 19.44084000  22.76140000  20.50176000
 17.46756000  21.80712000  20.00464000 18.47292000  23.00732000  20.00092000 17.19088000  21.69140000  18.98640000 16.51564000  21.98776000  20.50288000 17.90520000  20.89776000  20.28408000 19.35260000  22.65312000  20.52364000 18.18632000  23.85640000  20.60476000 18.69008000  23.32804000  19.03200000
 17.46308000  21.82436000  19.96892000 18.48336000  22.99324000  20.02552000 16.62808000  22.01524000  20.63328000 17.92004000  20.91180000  20.42036000 17.05880000  21.54460000  18.95300000 18.14568000  23.81808000  20.68228000 18.51324000  23.33440000  19.01236000 19.50364000  22.75236000  20.36536000
 17.45288000  21.84056000  19.95188000 18.48892000  22.95468000  20.04116000 16.54060000  22.18108000  20.46180000 17.86420000  20.98568000  20.51128000 17.20052000  21.48908000  18.92140000 17.95880000  23.80488000  20.55660000 18.76140000  23.33720000  19.05808000 19.49972000  22.84500000  20.57348000
 17.44276000  21.84796000  19.96804000 18.49232000  22.97104000  20.02968000 17.92284000  20.90860000  20.39020000 17.18428000  21.72996000  18.94816000 16.54236000  21.94176000  20.55640000 18.60428000  23.39888000  19.03184000 19.45268000  22.55252000  20.43760000 18.19844000  23.82812000  20.66288000
 17.44548000  21.85760000  19.98744000 18.46228000  22.99548000  20.04528000 16.56696000  21.70628000  20.63268000 18.06696000  20.92988000  20.12860000 17.05480000  21.85272000  18.97276000 18.29588000  23.89900000  20.56900000 18.82256000  23.07896000  18.96736000 19.42340000  22.48672000  20.33960000
 17.44712000  21.85008000  19.98540000 18.48112000  22.96952000  20.03724000 17.01856000  21.76404000  18.96960000 16.69516000  21.89576000  20.77884000 17.93004000  20.87608000  20.03992000 19.55592000  22.65060000  20.02044000 18.39208000  23.66704000  20.87888000 18.39472000  23.49912000  19.04276000
 17.46504000  21.80008000  20.00404000 18.47556000  23.01336000  19.99520000 16.52680000  22.36128000  20.04088000 17.42924000  21.00232000  20.79504000 17.63920000  21.24468000  19.03796000 18.91348000  22.98284000  21.06204000 18.11304000  24.07608000  19.89668000 19.21772000  22.75900000  19.17632000
 17.45688000  21.84316000  19.95892000 18.48016000  22.97096000  20.03664000 16.81772000  21.68116000  20.84220000 17.94932000  20.85996000  19.98812000 16.79096000  21.92516000  19.06856000 18.43876000  23.76636000  20.83524000 18.35768000  23.58800000  19.09360000 19.52740000  22.59776000  20.22500000
 17.45668000  21.82544000  19.95100000 18.48480000  22.97856000  20.03116000 17.60124000  21.03808000  19.14768000 16.46932000  22.21028000  19.85332000 17.52344000  21.44608000  20.96840000 19.38252000  22.88008000  19.43560000 18.76752000  23.01932000  21.05152000 18.08452000  23.94472000  19.75600000
 17.44340000  21.83412000  19.94488000 18.50016000  22.97388000  20.02512000 16.42156000  22.16884000  19.77868000 17.53604000  21.35824000  20.90820000 17.65600000  20.98848000  19.27112000 18.76164000  23.02592000  21.10940000 18.05952000  23.95968000  19.89992000 19.36956000  22.99016000  19.39056000
 17.48448000  21.82568000  19.99480000 18.45312000  22.99084000  20.02176000 16.43784000  22.16048000  19.94892000 17.61148000  21.09568000  20.81032000 17.77244000  21.24096000  19.07336000 19.06136000  23.09588000  20.93800000 17.92432000  23.97116000  19.85240000 19.06764000  22.82544000  19.17996000
 17.46000000  21.81420000  19.97648000 18.48700000  23.00412000  20.02224000 17.72824000  21.06548000  20.74260000 17.55928000  21.32588000  19.00704000 16.38380000  21.99284000  20.13556000 17.96204000  23.91676000  20.23760000 18.94456000  23.14584000  19.05192000 19.18508000  22.92144000  20.84032000
 17.51772000  21.79960000  20.02220000 18.42344000  23.02996000  20.01200000 16.52680000  22.15396000  19.81868000 17.31444000  21.03832000  20.78712000 17.75452000  21.14244000  19.18908000 19.34740000  22.73288000  20.51184000 18.07960000  24.01440000  20.30632000 18.80960000  23.15204000  18.97948000
 17.49508000  21.79380000  19.97808000 18.44736000  23.03024000  20.04276000 17.79404000  20.87596000  20.44904000 17.43540000  21.63168000  18.88468000 16.45412000  21.95680000  20.40660000 18.84044000  23.11860000  19.01308000 19.35612000  22.78824000  20.61132000 17.93740000  23.92884000  20.38700000
 17.50392000  21.80456000  19.98824000 18.44292000  23.00132000  20.02412000 16.66020000  22.01540000  19.31072000 16.95392000  21.56620000  20.88300000 18.01876000  20.92980000  19.54604000 18.60268000  23.36756000  21.05052000 18.07696000  23.87800000  19.42544000 19.45224000  22.75976000  19.63696000
 17.50784000  21.80020000  19.94732000 18.42752000  23.01624000  20.02840000 16.60952000  21.99456000  19.33292000 17.20228000  21.55408000  20.96628000 17.97976000  20.89024000  19.64080000 18.38912000  23.45592000  21.02744000 18.24600000  23.84096000  19.29656000 19.47512000  22.65448000  20.02500000
 17.49352000  21.78844000  19.98104000 18.43804000  23.03916000  20.03288000 17.16652000  21.45276000  20.98452000 18.06528000  21.04440000  19.35520000 16.56384000  21.84484000  19.35020000 18.22644000  23.79796000  19.21376000 19.45392000  22.59884000  19.87584000 18.47112000  23.51872000  21.05496000
 17.48744000  21.76980000  19.98036000 18.43144000  23.05376000  20.03020000 17.36268000  21.33052000  20.96228000 17.94660000  21.09760000  19.32712000 16.62964000  21.96896000  19.46332000 18.26784000  23.75372000  19.19528000 19.40960000  22.55268000  19.95292000 18.48204000  23.60212000  20.97344000
 17.53800000  21.78560000  19.97332000 18.42880000  23.00492000  20.02800000 17.25276000  21.65680000  18.90956000 16.56392000  22.03876000  20.53384000 17.83592000  20.83768000  20.42980000 19.26624000  22.97220000  20.76804000 17.72196000  23.84232000  20.28712000 18.88672000  23.35164000  19.05604000
 17.53756000  21.78368000  19.98532000 18.41588000  23.03624000  20.04204000 16.53264000  22.20316000  19.79460000 17.56232000  21.03532000  20.85704000 17.78736000  21.17980000  19.03328000 19.05180000  23.09224000  20.92428000 17.73432000  23.85140000  19.98196000 19.01788000  22.98744000  19.08288000
 17.52840000  21.77476000  19.96576000 18.42480000  23.02800000  20.02696000 17.03512000  21.57044000  20.89672000 18.10072000  20.84868000  19.75772000 16.76244000  21.98304000  19.24088000 18.13532000  23.58472000  20.94332000 18.21580000  23.79536000  19.29272000 19.43992000  22.77100000  19.95524000
 17.52328000  21.79588000  19.98688000 18.40464000  23.02576000  20.03832000 16.81836000  21.57952000  20.81356000 18.10028000  20.88632000  19.86188000 16.95632000  21.80192000  18.98152000 18.46400000  23.52720000  21.01608000 18.21032000  23.81212000  19.25980000 19.44112000  22.72124000  19.76688000
 17.50220000  21.78000000  19.96768000 18.43160000  23.03036000  20.05460000 16.89820000  21.91816000  19.07832000 16.89776000  21.62452000  20.84308000 18.10244000  20.91432000  19.82788000 19.54260000  22.76324000  19.94164000 18.26312000  23.65176000  20.90228000 18.21628000  23.59072000  19.14156000
 17.51700000  21.77088000  19.95492000 18.41940000  23.04384000  20.02856000 17.59032000  21.19920000  19.03920000 16.49060000  22.08764000  20.11200000 17.72888000  21.06204000  20.79832000 19.14528000  23.04792000  19.20260000 19.10240000  22.96320000  20.92804000 17.83204000  24.05084000  20.11684000
 17.51900000  21.78260000  19.98476000 18.42340000  23.03340000  20.03940000 16.87900000  22.03032000  19.10724000 16.89912000  21.61576000  20.88820000 17.87104000  20.75912000  19.68044000 19.43752000  22.79868000  19.73200000 18.66096000  23.48604000  21.03932000 18.07040000  23.70536000  19.26492000
 17.48640000  21.80624000  19.94204000 18.45516000  23.00316000  20.04684000 18.00276000  20.90880000  19.72288000 16.55064000  21.96340000  19.30528000 17.18940000  21.54652000  20.93728000 17.97752000  23.89272000  19.54036000 19.45508000  22.89308000  19.51772000 18.65280000  23.26984000  21.10880000
 17.51692000  21.78852000  19.96056000 18.43212000  23.00492000  20.02368000 17.83616000  20.91732000  20.50600000 17.22024000  21.62372000  18.95092000 16.61408000  22.07636000  20.49256000 17.87576000  23.87924000  20.23096000 18.98780000  23.32324000  19.12504000 19.20512000  22.84472000  20.88240000
 17.52140000  21.76472000  19.96928000 18.43300000  23.01748000  20.03428000 16.52920000  22.12444000  20.40088000 17.73896000  20.89884000  20.57676000 17.46548000  21.51144000  18.92096000 19.15508000  23.00280000  20.83676000 17.81336000  23.97052000  20.12528000 18.97300000  23.29036000  19.09676000
 17.53064000  21.78372000  19.95528000 18.42160000  23.03320000  20.03276000 16.89380000  21.81952000  20.85804000 17.99092000  20.78636000  19.95168000 16.87160000  21.83352000  19.09368000 18.35512000  23.43776000  21.02172000 18.09368000  23.69580000  19.20976000 19.49540000  22.81168000  20.00744000
 17.56956000  21.73896000  19.97348000 18.37988000  23.07276000  20.01608000 16.62424000  21.85032000  19.38688000 17.13620000  21.51860000  20.92536000 18.13740000  20.93344000  19.58420000 19.40644000  22.83888000  19.63420000 18.41736000  23.37908000  21.07416000 18.01220000  23.92600000  19.51972000
 17.56896000  21.75140000  19.99200000 18.38864000  23.05104000  20.02696000 16.63656000  21.94024000  19.40616000 17.23892000  21.32280000  20.94912000 18.13340000  20.98892000  19.40316000 19.30428000  23.04328000  19.56464000 18.46340000  23.48128000  21.01248000 17.86028000  23.78044000  19.43832000
 17.57288000  21.75388000  19.98008000 18.36276000  23.06356000  20.03596000 18.14712000  20.94560000  19.38924000 16.67216000  21.89100000  19.34832000 17.26632000  21.38488000  20.95924000 17.93792000  23.84280000  19.39856000 19.40772000  22.75364000  19.68820000 18.46700000  23.56064000  21.02544000
 17.53848000  21.76136000  19.96996000 18.41160000  23.05492000  20.02612000 16.59084000  21.92132000  19.42720000 17.19292000  21.36996000  20.91216000 18.21180000  21.00116000  19.56468000 19.41052000  22.93024000  19.61364000 18.57008000  23.44636000  21.04300000 17.75048000  23.72336000  19.48604000
 17.52516000  21.78832000  19.97152000 18.40060000  23.02412000  20.02504000 16.44740000  21.89520000  19.66752000 17.55284000  21.23728000  21.01292000 18.10696000  21.14976000  19.26636000 19.38004000  22.88128000  19.50812000 18.63640000  23.42156000  21.01704000 17.89272000  23.85268000  19.56912000
 17.55276000  21.77084000  19.97548000 18.38416000  23.04804000  20.02292000 18.04876000  21.01480000  19.33656000 16.50596000  21.91196000  19.61344000 17.38244000  21.38592000  20.97912000 17.93928000  23.93088000  19.61252000 19.28020000  22.90040000  19.45248000 18.72648000  23.21748000  21.02512000
 17.56432000  21.75192000  19.95860000 18.38308000  23.06780000  20.04068000 17.33456000  21.35832000  20.97860000 17.96768000  20.88996000  19.35928000 16.53504000  22.00332000  19.64824000 18.91316000  23.22712000  20.96740000 17.80580000  23.94096000  19.67824000 19.20212000  22.93140000  19.37692000
 17.53468000  21.75196000  19.97636000 18.41112000  23.04584000  20.04676000 16.47796000  22.08368000  19.71240000 17.56980000  21.12056000  20.87068000 17.93852000  21.18576000  19.13964000 19.03896000  22.98924000  19.17524000 18.93816000  23.29908000  20.94944000 17.81412000  23.93412000  19.87728000
 17.54904000  21.76840000  19.98892000 18.40796000  23.04024000  20.04284000 18.17248000  20.88024000  19.80684000 16.94648000  21.86404000  19.07196000 16.70204000  21.56296000  20.70800000 17.85196000  23.85640000  20.57568000 18.56360000  23.41424000  19.01680000 19.40728000  22.90528000  20.44236000
 17.55444000  21.78340000  19.97164000 18.38268000  23.04340000  20.01244000 17.02816000  21.56316000  19.05688000 16.77064000  21.70016000  20.75864000 18.30060000  20.98472000  20.21128000 18.28756000  23.51952000  18.99768000 19.40956000  22.69784000  20.33636000 18.08408000  23.80148000  20.82860000
 17.56020000  21.76652000  19.98424000 18.37720000  23.04812000  20.01004000 17.04596000  21.54116000  19.04664000 16.65800000  21.80864000  20.66288000 18.24024000  20.90028000  20.16392000 18.61904000  23.50352000  19.06552000 19.36776000  22.84324000  20.44736000 17.94680000  23.81516000  20.68188000
 17.54856000  21.74504000  19.97872000 18.39380000  23.05076000  20.03136000 18.10132000  21.08952000  19.29296000 16.51820000  21.96204000  19.59832000 17.46132000  21.31772000  21.00132000 17.75972000  23.86464000  19.66540000 19.21084000  22.99108000  19.30672000 18.76724000  23.41116000  21.01496000
 17.55952000  21.76912000  19.96204000 18.38772000  23.06268000  20.00892000 17.07636000  21.36660000  19.03596000 16.77056000  21.90012000  20.68388000 18.19644000  20.90412000  20.23028000 18.52728000  23.57756000  19.05060000 19.29416000  22.79656000  20.61340000 17.89556000  23.66252000  20.73228000
 17.57944000  21.72420000  19.98860000 18.36064000  23.07524000  20.05104000 18.02832000  21.07676000  19.20068000 16.65576000  22.01672000  19.53348000 17.36940000  21.26316000  20.93060000 17.98804000  23.70052000  19.21504000 19.38568000  22.89392000  19.64688000 18.41824000  23.64168000  21.00124000
 17.55728000  21.75644000  20.00252000 18.36892000  23.05324000  20.04016000 17.64660000  21.58320000  18.91384000 16.56056000  21.86436000  20.32912000 17.97160000  20.80396000  20.47312000 18.39844000  23.28680000  18.92516000 19.38200000  22.93844000  20.28900000 18.05172000  23.99420000  20.56128000
 17.55436000  21.76824000  19.99500000 18.37840000  23.05144000  20.00652000 17.99188000  21.01200000  20.64552000 17.65356000  21.38940000  18.96728000 16.47520000  21.87216000  20.29936000 18.41252000  23.56336000  20.96212000 17.98008000  23.61876000  19.12500000 19.41972000  22.89640000  19.98248000
 17.57276000  21.73372000  19.97904000 18.37592000  23.07368000  20.01016000 16.71944000  21.86916000  20.68772000 18.20932000  20.89104000  20.22116000 17.04068000  21.54404000  19.06216000 19.38484000  22.87800000  20.41492000 18.02504000  23.78188000  20.73716000 18.36364000  23.53420000  19.00544000
 17.55220000  21.77000000  19.89128000 18.40824000  23.03020000  20.08976000 17.11052000  21.35048000  20.85420000 18.09720000  20.95928000  19.53484000 16.60608000  22.06540000  19.48728000 18.60840000  23.30988000  21.14640000 17.77544000  23.86584000  19.66220000 19.40528000  23.03308000  19.54096000
 17.55220000  21.75908000  19.93004000 18.41100000  23.04172000  20.05524000 16.86476000  21.56764000  20.76460000 18.18472000  20.93272000  19.64904000 16.69328000  22.03764000  19.33420000 18.80504000  23.04600000  21.11996000 17.74884000  23.90828000  19.81800000 19.27344000  23.08476000  19.48936000
 17.50780000  21.79260000  19.94248000 18.43784000  23.03188000  20.07956000 18.07892000  20.99196000  19.36544000 16.60052000  21.86396000  19.28452000 17.19724000  21.48392000  20.94860000 17.94128000  23.80028000  19.47012000 19.35088000  22.70632000  19.60472000 18.61052000  23.44816000  21.06404000
 17.50316000  21.80288000  19.96476000 18.43504000  23.03540000  20.05692000 16.39880000  21.87380000  20.30048000 17.89136000  20.82168000  20.41248000 17.54428000  21.51236000  18.87040000 19.40244000  22.82372000  20.54224000 17.89752000  23.81492000  20.60668000 18.73332000  23.28384000  19.00924000
 17.51284000  21.81372000  19.97832000 18.42632000  23.00188000  20.02868000 17.75884000  21.06232000  20.75860000 17.48308000  21.28100000  19.02500000 16.49960000  22.03864000  20.11564000 17.88296000  23.92124000  20.31736000 18.88000000  23.24712000  19.05568000 19.35208000  22.85028000  20.64432000
 17.48492000  21.78492000  19.96212000 18.46672000  23.02136000  20.01024000 17.95960000  20.85936000  19.69408000 16.54908000  21.95108000  19.41752000 17.14280000  21.60580000  20.95844000 18.08584000  23.80440000  19.32140000 19.53488000  22.79864000  19.90284000 18.43544000  23.49232000  21.03532000
 17.47180000  21.83088000  19.97616000 18.47312000  22.98900000  20.02936000 17.91540000  20.94916000  19.45064000 16.49744000  21.97472000  19.55060000 17.26960000  21.40712000  21.00348000 17.98928000  23.80964000  19.40100000 19.46196000  22.81020000  19.45472000 18.65420000  23.39852000  21.07384000
 17.51308000  21.77680000  20.01932000 18.45184000  23.01508000  19.99016000 16.70652000  22.16108000  20.58656000 17.68188000  20.78148000  20.52912000 17.08320000  21.58472000  19.00164000 19.50420000  22.97752000  20.35484000 18.01736000  23.92216000  20.43564000 18.55624000  23.25644000  18.97908000
 17.50924000  21.80104000  20.00632000 18.44236000  23.00872000  20.00248000 17.24916000  21.32148000  19.05380000 16.49796000  22.15892000  20.27836000 17.78896000  21.03680000  20.79076000 19.01704000  22.94188000  19.03252000 19.28052000  23.09116000  20.71888000 17.87464000  23.92004000  20.02044000
 17.48124000  21.84064000  20.04868000 18.43672000  23.00072000  19.95360000 16.89824000  21.63568000  19.13508000 16.84416000  21.72448000  20.94140000 18.01236000  20.91200000  19.97120000 19.49168000  22.50456000  20.23640000 18.33728000  23.75556000  20.67032000 18.52556000  23.56132000  19.01856000
 17.48752000  21.80132000  20.03512000 18.45764000  23.00624000  19.97248000 16.90484000  21.80828000  19.06988000 16.71580000  21.95296000  20.87276000 17.94192000  20.80012000  20.16984000 19.51864000  22.63440000  20.10168000 18.32516000  23.79068000  20.68448000 18.37840000  23.51004000  19.01064000
 17.47232000  21.84472000  20.05496000 18.47432000  22.97484000  19.95352000 16.41952000  22.19816000  19.74456000 17.41460000  21.37656000  21.02472000 17.73072000  20.97876000  19.41612000 19.08140000  22.99028000  20.85388000 17.98108000  24.05896000  19.82592000 19.14012000  22.75068000  19.03328000
 17.46972000  21.81776000  20.04284000 18.48152000  22.98180000  19.96512000 17.73008000  20.96476000  20.61924000 17.25368000  21.51724000  19.07028000 16.61320000  22.22220000  20.51048000 17.93732000  23.90452000  20.20920000 18.80484000  23.08608000  18.90104000 19.37376000  22.89676000  20.59496000
 17.47548000  21.83172000  20.01508000 18.47644000  22.96308000  19.98304000 17.58588000  21.06292000  20.89148000 17.36584000  21.35172000  19.11012000 16.52312000  22.29716000  20.33100000 17.86904000  23.91140000  20.00760000 19.08676000  23.07252000  19.01544000 19.27400000  22.95244000  20.66656000
 17.46808000  21.81548000  20.03500000 18.47112000  22.98964000  19.95424000 16.52200000  22.22464000  20.42992000 17.51464000  21.06484000  20.90716000 17.45736000  21.38984000  19.01964000 18.50844000  23.61792000  20.91172000 18.33348000  23.66564000  19.08324000 19.52008000  22.56236000  19.77680000
 17.44020000  21.85372000  20.02656000 18.48768000  22.96644000  19.96436000 16.89356000  21.65348000  19.10472000 16.83664000  21.88772000  20.90900000 17.91420000  20.98196000  20.39316000 19.46128000  22.61736000  20.19636000 18.29940000  23.83428000  20.55400000 18.58604000  23.37156000  18.95132000
 17.43948000  21.83776000  20.05888000 18.49528000  22.97368000  19.95228000 17.75696000  20.97172000  20.69740000 17.37532000  21.42532000  19.03868000 16.39784000  22.07832000  20.42936000 18.21124000  24.04892000  20.22504000 18.75592000  23.14320000  18.92304000 19.41196000  22.78260000  20.55376000
 17.43732000  21.82136000  20.06284000 18.47416000  22.99888000  19.94796000 17.95212000  20.87832000  19.97840000 16.76124000  21.86956000  19.17812000 16.98136000  21.78508000  21.02504000 18.27252000  23.94968000  19.36328000 19.30012000  22.55132000  19.38340000 18.91892000  23.31088000  20.94320000
 17.48596000  21.83824000  20.05392000 18.47628000  22.95780000  19.94380000 17.32812000  21.18040000  19.10708000 16.54372000  22.37112000  20.23824000 17.62288000  21.15876000  20.86256000 19.20444000  22.98636000  19.13340000 19.03688000  23.04680000  20.87644000 17.84576000  23.88992000  19.80932000
 17.46696000  21.81716000  20.06588000 18.48488000  22.97956000  19.94848000 17.81988000  20.75936000  19.99444000 16.77624000  21.79824000  19.17208000 16.75844000  22.06856000  20.83060000 18.65968000  23.47420000  18.98220000 19.45984000  22.69788000  20.34928000 18.23156000  23.82736000  20.50008000
 17.46628000  21.83080000  20.02184000 18.48364000  22.97000000  19.96096000 17.91768000  20.92568000  20.50400000 17.02828000  21.49216000  19.08816000 16.60252000  22.10224000  20.68776000 18.73204000  23.43716000  19.03000000 19.42488000  22.75444000  20.43820000 18.02268000  23.86484000  20.45684000
 17.46792000  21.82164000  20.04512000 18.47188000  22.98720000  19.95164000 17.78424000  20.90336000  19.47912000 16.56224000  22.20684000  19.57972000 17.29304000  21.48928000  21.06564000 19.38572000  22.75300000  19.38400000 18.79708000  23.22480000  20.95508000 18.02672000  23.90376000  19.57476000
 17.46772000  21.83380000  20.02896000 18.47376000  22.97588000  19.97924000 17.08716000  21.58112000  19.02984000 16.62552000  22.09216000  20.69860000 17.91728000  20.92444000  20.37836000 19.38500000  22.74060000  20.42416000 18.13084000  23.88060000  20.43188000 18.68304000  23.25232000  18.93948000
 17.45076000  21.85084000  20.03880000 18.47224000  22.99056000  19.97736000 17.43872000  21.31340000  19.06840000 16.43228000  22.04648000  20.29308000 17.90852000  21.00592000  20.63920000 19.47312000  22.65384000  20.31424000 18.23460000  23.88668000  20.60296000 18.56208000  23.18672000  18.88980000
 17.46816000  21.80492000  20.02024000 18.47452000  22.98500000  19.96708000 16.55920000  22.23008000  19.65192000 17.36860000  21.51572000  21.09352000 17.71388000  20.90456000  19.42996000 18.74452000  23.28344000  21.06232000 17.96796000  23.85700000  19.53300000 19.46056000  22.91532000  19.38056000
 17.48832000  21.80620000  20.03736000 18.45184000  22.99360000  19.94640000 16.56268000  22.11084000  20.61056000 17.90276000  20.90868000  20.48264000 17.06360000  21.59732000  19.02216000 18.10708000  23.82392000  20.66040000 18.78028000  23.49208000  18.99772000 19.42844000  22.65592000  20.41980000
 17.46440000  21.81644000  19.99380000 18.49452000  22.99204000  19.99904000 16.54856000  21.98152000  19.33420000 17.17760000  21.76344000  21.03400000 17.93368000  20.88304000  19.83420000 18.75268000  23.26684000  20.97268000 17.85828000  23.82600000  19.52320000 19.35016000  22.76448000  19.38712000
 17.46940000  21.83276000  20.04196000 18.44116000  22.99948000  19.95900000 17.44336000  21.35952000  21.03796000 17.94676000  21.04388000  19.34248000 16.42936000  22.00500000  19.78036000 18.08260000  24.02968000  19.71952000 19.26140000  22.65076000  19.25968000 19.03400000  23.11332000  20.84852000
 17.46584000  21.80624000  20.00056000 18.48516000  22.99948000  19.96612000 17.78596000  20.91216000  19.46140000 16.44992000  22.22576000  19.86440000 17.52432000  21.36620000  21.00320000 19.41152000  22.94032000  19.39216000 18.74732000  23.24588000  21.00488000 17.79608000  23.82772000  19.67076000
 17.49876000  21.80948000  20.02648000 18.45644000  22.99832000  19.97196000 17.96276000  20.91596000  19.59156000 16.49824000  21.95960000  19.51528000 17.08504000  21.62148000  21.01732000 19.32208000  22.95464000  19.30540000 18.79816000  23.13032000  20.95324000 17.99900000  23.91168000  19.63572000
 17.50192000  21.79912000  20.00928000 18.45120000  23.00964000  20.00540000 17.95348000  20.98048000  20.49172000 17.08568000  21.32900000  19.02804000 16.47704000  22.16980000  20.39960000 18.92916000  23.13776000  19.03264000 19.28344000  22.92152000  20.65424000 17.96116000  23.94312000  20.21904000
 17.47848000  21.80944000  19.98972000 18.45812000  22.99524000  20.01564000 17.53412000  21.27668000  18.99084000 16.34780000  22.06336000  20.25768000 17.74112000  21.17476000  20.77396000 19.37312000  22.87576000  20.66532000 17.99756000  24.00724000  20.18896000 18.89360000  23.13260000  19.05920000
 17.49256000  21.78476000  19.99052000 18.43972000  23.02668000  20.02640000 18.04152000  20.84600000  19.86700000 16.80368000  21.92524000  19.09576000 16.76096000  21.78208000  20.82552000 19.50316000  22.61104000  20.00960000 18.46516000  23.77528000  20.89680000 18.36396000  23.51040000  19.10392000
 17.49212000  21.80660000  19.96804000 18.44556000  23.00556000  20.02236000 17.94656000  21.04104000  20.62016000 17.39340000  21.42492000  18.97408000 16.41876000  21.95456000  20.39048000 19.35284000  22.78568000  20.53948000 18.07196000  23.83360000  20.60440000 18.69052000  23.40176000  18.98580000
 17.50324000  21.79692000  19.97104000 18.44108000  23.00012000  20.03876000 16.46096000  22.03560000  20.23444000 17.86120000  20.95360000  20.58360000 17.33956000  21.48044000  18.91492000 18.68244000  23.36628000  19.05812000 19.42044000  22.92136000  20.51156000 18.03044000  23.86456000  20.58044000
 17.51700000  21.78280000  19.96644000 18.43808000  23.01304000  20.03176000 16.48852000  22.10004000  20.28168000 17.77288000  20.84176000  20.55464000 17.36032000  21.41068000  18.95184000 18.58928000  23.48128000  19.06820000 19.46128000  22.95832000  20.52444000 17.99448000  23.84388000  20.64032000
 17.50132000  21.78084000  19.95112000 18.40488000  23.02740000  20.03592000 17.74900000  21.15140000  20.83376000 17.82220000  21.11540000  19.16748000 16.43184000  22.02860000  19.93432000 19.12284000  22.88572000  20.84896000 17.99076000  24.11868000  20.18084000 19.13300000  23.18844000  19.18904000
 17.54152000  21.78684000  19.99108000 18.40720000  23.02452000  20.04588000 17.33852000  21.60384000  18.90412000 16.48512000  21.95236000  20.38396000 17.93376000  20.81984000  20.39336000 18.35548000  23.45300000  19.02152000 19.51992000  22.75724000  20.12528000 18.10968000  23.86476000  20.73156000
 17.50268000  21.80500000  19.97320000 18.44036000  23.01332000  20.01336000 16.49612000  21.91312000  19.46604000 17.31732000  21.49208000  20.98860000 17.92508000  20.94580000  19.53768000 19.35864000  22.95956000  19.34276000 18.78744000  23.09160000  21.04212000 17.92580000  23.96588000  19.78280000
 17.50024000  21.78376000  19.96924000 18.42340000  23.01336000  20.07204000 18.12300000  20.95536000  19.88628000 16.93344000  21.92668000  18.99424000 16.72724000  21.70880000  20.81476000 18.26900000  23.92792000  20.57376000 18.49644000  23.35940000  18.99712000 19.49252000  22.74256000  20.24184000
 17.50748000  21.79164000  19.98312000 18.43256000  23.02148000  20.04776000 17.69952000  20.96712000  20.67540000 17.61532000  21.35432000  19.01532000 16.50740000  22.14132000  20.06412000 19.01220000  23.27608000  20.98716000 17.83980000  23.89980000  19.57324000 19.17152000  22.79152000  19.31692000
 17.51136000  21.79040000  20.00792000 18.43192000  23.01868000  20.02572000 17.95844000  20.80016000  19.96836000 17.03096000  21.82492000  18.99412000 16.71936000  21.81120000  20.71296000 18.27692000  23.71876000  20.85788000 18.34664000  23.56824000  19.01416000 19.47536000  22.75496000  20.05152000
 17.49824000  21.79964000  19.98452000 18.45984000  23.00532000  20.02188000 16.45408000  22.08244000  19.81048000 17.59748000  21.20548000  20.85004000 17.63284000  21.12732000  19.13888000 19.21720000  23.01516000  19.21124000 18.86780000  23.14540000  21.01596000 17.86196000  23.95136000  19.89716000
 17.48532000  21.79520000  19.97744000 18.44460000  23.01508000  20.03528000 16.88760000  21.71212000  20.83984000 17.96948000  20.89016000  19.75876000 16.90092000  21.85476000  19.09004000 19.51012000  22.79944000  19.89116000 18.44608000  23.47836000  21.04216000 18.25192000  23.72928000  19.22676000
 17.49076000  21.80360000  19.97536000 18.46212000  23.00228000  20.04256000 17.62024000  21.43708000  18.94984000 16.43832000  22.09188000  20.08848000 17.64528000  20.91376000  20.65668000 17.80492000  23.94408000  20.09920000 19.00596000  23.10312000  19.10740000 19.17792000  23.02620000  20.88468000
 17.47220000  21.81480000  19.97460000 18.46716000  22.99480000  20.03436000 16.43192000  22.13064000  19.83936000 17.66780000  21.06044000  20.82056000 17.67736000  21.24652000  19.07744000 19.00032000  23.25028000  19.13840000 19.15896000  22.92820000  20.84156000 17.91780000  23.85612000  20.17588000
 17.49732000  21.79992000  19.94688000 18.45216000  23.01336000  20.03448000 16.97156000  21.66456000  20.90472000 18.06880000  20.88112000  19.77524000 16.72616000  21.88044000  19.21872000 19.47524000  22.76384000  20.06808000 18.32136000  23.50368000  20.99144000 18.17016000  23.73428000  19.26360000