 17.46120000  21.80644000  19.97212000 18.45876000  23.01520000  20.03556000 16.77516000  21.96608000  19.16220000 17.04836000  21.53152000  20.93896000 18.10080000  20.97052000  19.95384000 18.07640000  23.87792000  20.61384000 18.63600000  23.30236000  18.96468000 19.44888000  22.68016000  20.27488000
 17.47120000  21.78812000  19.97004000 18.45636000  23.03264000  20.04056000 17.85524000  21.22688000  19.11664000 16.43100000  22.05304000  19.56648000 17.48252000  21.13172000  20.91004000 19.22104000  22.76424000  20.73536000 18.06752000  23.97248000  20.47568000 18.93752000  23.19076000  19.06980000
 17.49644000  21.79200000  19.95664000 18.45716000  23.01896000  20.03792000 16.75472000  22.08648000  19.16600000 16.95884000  21.62680000  20.91680000 17.94452000  20.81220000  19.66456000 18.12880000  23.46312000  20.91052000 18.39976000  23.71560000  19.20124000 19.49732000  22.75156000  20.20592000
 17.48388000  21.78960000  19.94808000 18.44184000  23.03612000  20.03784000 16.75580000  21.95960000  20.71808000 17.90692000  20.78620000  20.23488000 17.17128000  21.54964000  18.94784000 18.60128000  23.38424000  19.04720000 19.46088000  22.82064000  20.47536000 18.12056000  23.77988000  20.74440000
 17.50124000  21.80660000  19.97500000 18.45604000  22.99740000  20.02640000 17.00412000  21.62356000  20.92448000 17.96448000  20.82280000  19.64528000 16.81536000  21.99172000  19.16468000 19.07160000  23.06872000  19.17456000 18.95656000  23.09932000  20.95064000 17.82844000  23.93280000  20.12380000
 17.50708000  21.77784000  19.90716000 18.47000000  23.00944000  20.11484000 17.41180000  21.60496000  18.83852000 16.47088000  22.14860000  20.12660000 17.69268000  20.83704000  20.46684000 17.87068000  23.75788000  20.65556000 18.54000000  23.53268000  19.10560000 19.41868000  22.85660000  20.54444000
 17.50776000  21.78272000  19.86872000 18.43088000  23.02988000  20.12916000 16.55160000  22.10468000  20.25040000 17.75120000  20.98940000  20.58416000 17.36252000  21.38164000  18.88084000 18.83132000  23.27748000  19.13680000 19.34484000  22.71340000  20.64332000 18.02128000  23.96936000  20.52976000
 17.47748000  21.80864000  19.92724000 18.46748000  23.00236000  20.06860000 16.71812000  21.95788000  19.14324000 16.86836000  21.53744000  20.79372000 18.05384000  20.96412000  19.63076000 18.25536000  23.85104000  19.42160000 19.52964000  22.78452000  19.98816000 18.36228000  23.36032000  21.07168000
 17.51376000  21.82060000  19.92744000 18.44992000  22.97852000  20.08668000 16.69296000  22.30272000  19.34672000 17.07336000  21.28300000  20.87676000 17.90848000  21.00816000  19.23656000 18.11288000  23.62720000  19.28860000 19.55724000  22.77288000  20.14668000 18.21896000  23.60296000  20.93632000
 17.50360000  21.82116000  19.89400000 18.43476000  22.99824000  20.08820000 17.40412000  21.35620000  20.91084000 17.99612000  21.08724000  19.22908000 16.41868000  22.00764000  19.48412000 19.33320000  22.51000000  20.41592000 18.15908000  23.71252000  20.97156000 18.55476000  23.68192000  19.20068000
 17.48616000  21.82072000  19.90808000 18.44480000  23.00380000  20.07368000 17.54484000  21.05008000  20.70508000 17.85292000  21.21308000  19.04328000 16.48044000  22.14068000  19.89928000 19.27224000  22.78820000  20.81572000 17.93876000  23.79812000  20.61540000 18.86520000  23.30380000  19.13840000
 17.50020000  21.82448000  19.89800000 18.43708000  22.99476000  20.10816000 16.80624000  22.15080000  19.15960000 16.91188000  21.42460000  20.72340000 18.01416000  20.93416000  19.62352000 18.68956000  23.14464000  19.05472000 19.44752000  22.88332000  20.64836000 18.00928000  23.81952000  20.71676000
 17.51296000  21.78964000  19.88152000 18.41660000  23.02672000  20.08752000 16.76016000  22.04176000  20.58264000 17.99648000  20.84912000  20.19900000 17.02568000  21.66528000  18.94828000 19.43672000  22.55896000  20.18812000 18.25724000  23.42744000  21.12268000 18.49476000  23.84920000  19.32848000
 17.51924000  21.79344000  19.91144000 18.42892000  23.01284000  20.09432000 17.96836000  20.83252000  19.80408000 16.80496000  21.88364000  19.10804000 16.75648000  21.83992000  20.62316000 18.28064000  23.54336000  21.08280000 18.45240000  23.76356000  19.26328000 19.48664000  22.64856000  20.05024000
 17.46392000  21.82808000  19.90708000 18.45960000  23.00164000  20.07684000 18.11844000  20.99068000  19.60796000 16.70528000  21.75828000  19.16924000 17.09608000  21.59956000  20.88724000 18.12156000  23.45908000  20.99840000 18.50040000  23.81444000  19.27304000 19.50116000  22.61052000  20.25564000
 17.50700000  21.83476000  19.91512000 18.43624000  22.98088000  20.09104000 18.01032000  20.81968000  19.87768000 17.01464000  22.03188000  19.00772000 16.75800000  21.64232000  20.65580000 18.48436000  23.40220000  21.07716000 18.06136000  23.73792000  19.43936000 19.47948000  22.76612000  19.86876000
 17.47264000  21.80356000  19.88524000 18.48020000  23.00776000  20.12768000 17.71768000  21.36092000  18.91104000 16.37412000  22.06368000  19.79800000 17.49380000  20.93184000  20.64932000 17.84124000  23.83268000  20.49716000 18.94756000  23.37288000  19.17508000 19.31896000  22.88920000  20.81544000
 17.56608000  21.78244000  19.82912000 18.38328000  23.03296000  20.13480000 16.93352000  21.77044000  18.92608000 16.73360000  21.81636000  20.60324000 18.06904000  20.84164000  20.10716000 18.70956000  23.73448000  19.31784000 19.38132000  22.62656000  20.46308000 17.90828000  23.61352000  21.01224000
 17.51212000  21.80408000  19.87008000 18.42368000  23.00672000  20.14532000 18.23380000  21.06416000  19.51152000 16.80980000  22.13088000  19.11912000 16.93956000  21.20920000  20.62528000 17.82580000  23.80736000  20.65848000 18.69876000  23.30244000  19.10788000 19.38904000  22.94360000  20.79416000
 17.53448000  21.78576000  19.88192000 18.41544000  23.01868000  20.13888000 17.88168000  20.88576000  20.45528000 17.53484000  21.55752000  18.82768000 16.43928000  22.01660000  19.93396000 19.09164000  22.78260000  20.94520000 17.93096000  23.95808000  20.38680000 18.84952000  23.33292000  19.20332000
 17.53708000  21.77320000  19.84688000 18.41808000  23.03012000  20.15340000 17.89012000  21.02128000  19.07712000 16.59472000  22.23484000  19.59200000 17.24448000  21.18888000  20.83592000 18.29164000  23.53096000  21.18248000 18.12676000  23.76488000  19.35524000 19.51852000  22.80568000  19.95420000
 17.52240000  21.77988000  19.86180000 18.44360000  23.01132000  20.15496000 16.47012000  22.00876000  20.05560000 17.67596000  20.94204000  20.49552000 17.57008000  21.55860000  18.77892000 18.43072000  23.71760000  19.28412000 19.42444000  22.66868000  20.46396000 17.96536000  23.79532000  20.72188000
 17.49160000  21.76188000  19.84592000 18.44112000  23.05440000  20.15320000 17.47696000  21.36328000  18.80544000 16.44316000  22.03556000  20.23656000 17.95764000  20.91804000  20.26988000 18.09448000  23.72044000  20.93748000 18.59476000  23.66396000  19.17584000 19.36620000  22.69112000  20.58528000
 17.49240000  21.79584000  19.88380000 18.44612000  23.01372000  20.12124000 18.16404000  21.05096000  19.37476000 16.78580000  21.99364000  19.15856000 17.00888000  21.37624000  20.76136000 18.28600000  23.29352000  21.14576000 18.10448000  23.89980000  19.63720000 19.51508000  22.85816000  19.86208000
 17.50328000  21.81444000  19.86708000 18.42672000  23.01728000  20.10852000 16.45636000  22.00412000  19.62836000 17.64896000  21.25920000  20.79120000 17.86120000  21.06948000  19.07052000 18.53004000  23.80212000  19.39640000 19.35988000  22.48272000  20.37864000 18.10908000  23.59120000  21.02540000
 17.51872000  21.77984000  19.84976000 18.42800000  23.02496000  20.15620000 16.73152000  22.13544000  19.18416000 17.00816000  21.51676000  20.82864000 17.94788000  20.79544000  19.47536000 18.00400000  23.94752000  19.68592000 19.32236000  22.86584000  19.51180000 18.75272000  23.26800000  21.24296000
 17.53016000  21.80404000  19.86288000 18.40652000  23.01368000  20.13796000 17.80860000  21.03524000  19.16924000 16.58104000  22.15760000  19.47320000 17.47912000  21.26060000  20.84340000 18.29968000  23.46016000  21.07536000 18.26332000  23.88184000  19.47320000 19.45416000  22.57976000  19.95548000
 17.50756000  21.82536000  19.87276000 18.42728000  23.00088000  20.11052000 16.51516000  21.89520000  20.46980000 17.91248000  20.88880000  20.23608000 17.43088000  21.58020000  18.83624000 19.03024000  23.21756000  19.19204000 19.03704000  22.82732000  20.90852000 17.98208000  23.86500000  20.55628000
 17.51612000  21.78104000  19.89568000 18.45044000  23.01752000  20.12612000 17.93844000  21.09796000  19.19260000 16.56204000  22.17576000  19.21920000 17.04456000  21.39332000  20.81448000 18.16172000  23.59336000  20.96944000 18.35112000  23.58548000  19.25536000 19.47184000  22.75768000  20.28924000
 17.50220000  21.80864000  19.84620000 18.45828000  22.98704000  20.11944000 16.46648000  22.05740000  19.35704000 17.27544000  21.54940000  20.90100000 17.94412000  20.94040000  19.36572000 18.72660000  23.72100000  19.24112000 19.26852000  22.60596000  20.78776000 17.92116000  23.76380000  20.75672000
 17.48952000  21.79940000  19.89248000 18.45312000  23.00116000  20.11716000 16.47292000  21.97316000  20.24344000 17.87252000  20.83484000  20.22896000 17.48116000  21.73368000  18.77440000 19.31400000  22.74264000  19.62804000 18.73308000  23.35164000  21.15524000 17.94152000  23.94380000  19.85480000
 17.49356000  21.82980000  19.87640000 18.44204000  22.98628000  20.13612000 16.43660000  22.05364000  19.85808000 17.57348000  21.04812000  20.65108000 17.82364000  21.39504000  18.95932000 19.14072000  23.06508000  19.33452000 19.03928000  22.87244000  20.97464000 17.88484000  23.96044000  20.07280000
 17.47512000  21.82080000  19.88416000 18.47972000  22.97404000  20.11176000 17.94756000  21.15276000  19.22764000 16.55712000  22.22800000  19.34028000 17.23368000  21.21280000  20.75108000 17.77344000  23.79132000  20.52896000 18.89440000  23.31476000  19.18824000 19.26352000  22.94820000  21.01240000
 17.49264000  21.84472000  19.83040000 18.44068000  22.97288000  20.19640000 18.15232000  21.17384000  19.29420000 16.71564000  22.09732000  19.03272000 16.98744000  21.37124000  20.69100000 18.26648000  23.65756000  19.41148000 19.47312000  22.66460000  20.10556000 18.33096000  23.41196000  21.14572000
 17.49596000  21.80860000  19.82508000 18.44132000  23.00588000  20.19828000 16.43528000  22.06884000  19.77860000 17.48992000  20.86584000  20.40264000 17.72192000  21.58960000  18.80336000 18.99696000  22.95608000  21.11176000 18.04912000  24.04316000  20.16320000 19.18596000  22.89040000  19.46224000
 17.48828000  21.81180000  19.80060000 18.46856000  22.98636000  20.16764000 16.52880000  22.27716000  19.67556000 17.36104000  21.25824000  20.74080000 17.68476000  21.23608000  18.89024000 18.80384000  22.61080000  21.12204000 17.90640000  23.88440000  20.41308000 19.36120000  23.34172000  19.53708000
 17.49064000  21.82220000  19.81384000 18.46176000  22.98984000  20.18116000 17.87452000  20.86248000  19.47560000 16.85392000  22.15872000  19.05236000 16.84156000  21.47080000  20.75032000 18.59368000  23.73640000  19.47296000 19.50432000  22.66256000  20.21396000 18.03072000  23.55192000  21.09416000
 17.48636000  21.83272000  19.81944000 18.45672000  22.98128000  20.16572000 17.96312000  20.90556000  20.25924000 17.21196000  21.75696000  18.73304000 16.48876000  21.89200000  20.29944000 18.05668000  23.83608000  20.74332000 18.90100000  23.41900000  19.20480000 19.18864000  22.61008000  20.93728000
 17.48772000  21.81272000  19.82284000 18.45920000  22.98584000  20.19148000 17.90236000  20.87708000  19.36260000 16.80356000  22.22592000  18.98212000 16.98408000  21.54228000  20.71332000 17.95152000  23.88548000  19.80804000 19.44208000  23.04308000  19.67528000 18.68052000  23.02952000  21.28784000
 17.52192000  21.83008000  19.83872000 18.42976000  22.98596000  20.15544000 17.07440000  21.44048000  20.75796000 18.06316000  21.04512000  19.17072000 16.61364000  22.10972000  19.22748000 19.00732000  22.53036000  20.93608000 17.97276000  23.83352000  20.65764000 18.97644000  23.43612000  19.31984000
 17.50640000  21.82924000  19.84324000 18.44828000  22.97416000  20.16808000 17.45784000  21.90744000  18.71296000 16.43748000  21.96432000  20.15216000 17.74620000  20.80256000  20.23392000 17.99184000  23.77272000  19.64844000 19.49960000  22.82544000  19.88616000 18.53868000  23.27372000  21.23100000
 17.51236000  21.80860000  19.80680000 18.42100000  23.01280000  20.20516000 17.83112000  20.91284000  20.29568000 17.40608000  21.64316000  18.71876000 16.50884000  21.93924000  20.21632000 18.70068000  23.09744000  21.24556000 18.16604000  23.99768000  19.73472000 19.31280000  22.74064000  19.64656000
 17.49488000  21.82236000  19.80984000 18.42344000  23.01764000  20.16364000 16.43744000  22.11492000  19.98968000 17.61496000  20.97856000  20.50156000 17.73568000  21.27756000  18.88744000 19.02116000  23.42340000  19.30500000 19.24336000  22.58296000  20.80732000 18.05216000  23.73256000  20.82520000
 17.50016000  21.83180000  19.82596000 18.45592000  22.97380000  20.18296000 16.88000000  21.62576000  20.68620000 18.01052000  20.90052000  19.47668000 16.70480000  22.19060000  19.00340000 19.42104000  22.70064000  19.72904000 18.69444000  23.19500000  21.27168000 17.94424000  23.90716000  19.72640000
 17.47260000  21.87508000  19.80948000 18.44496000  22.95796000  20.18084000 16.83648000  21.91156000  18.94384000 16.72660000  21.63708000  20.57604000 18.12232000  20.96724000  19.82156000 18.36528000  23.33888000  21.24516000 18.65372000  23.79688000  19.43436000 19.40932000  22.54120000  20.09472000
 17.45668000  21.85516000  19.83804000 18.47392000  22.97924000  20.15640000 16.79220000  21.41272000  20.66676000 18.01176000  21.03084000  19.49872000 16.80744000  22.06580000  18.97780000 18.98776000  23.46220000  19.39932000 19.27336000  22.45808000  20.72268000 18.08576000  23.74668000  20.80116000
 17.47832000  21.87844000  19.81872000 18.44036000  22.95416000  20.16628000 16.98260000  21.49004000  20.71996000 18.14300000  21.10124000  19.40312000 16.66292000  22.06728000  19.06388000 18.92036000  23.29776000  19.24268000 19.18252000  22.48396000  20.84108000 18.20896000  23.75780000  20.90792000
 17.46064000  21.87324000  19.81896000 18.45176000  22.96280000  20.15952000 16.45016000  22.13596000  19.71792000 17.44592000  21.13372000  20.62028000 17.95728000  21.26088000  19.07248000 18.19200000  23.61408000  20.97556000 18.76760000  23.50724000  19.33728000 19.36204000  22.50520000  20.53292000
 17.47356000  21.84508000  19.84124000 18.47136000  22.97004000  20.18512000 16.95048000  22.12252000  18.97160000 16.83928000  21.45564000  20.69960000 17.94912000  21.02952000  19.38128000 18.55412000  23.15832000  21.19096000 18.10760000  23.90380000  19.81948000 19.38752000  22.73680000  19.62284000
 17.47768000  21.83352000  19.81232000 18.47976000  22.97732000  20.15008000 16.94676000  21.87380000  18.88116000 16.68768000  21.89300000  20.55364000 17.93048000  20.86400000  20.06464000 19.21192000  22.54496000  20.92640000 17.82912000  23.75236000  20.56392000 19.03260000  23.52880000  19.45812000
 17.46632000  21.87692000  19.85104000 18.45208000  22.95688000  20.17088000 16.68908000  21.52856000  20.54340000 18.05000000  20.93496000  19.75608000 17.10904000  21.96440000  18.75460000 18.30576000  23.46800000  21.04900000 18.52812000  23.75980000  19.34252000 19.42156000  22.52764000  20.29324000
 17.48392000  21.81176000  19.78548000 18.44480000  23.00764000  20.19568000 17.43008000  20.99044000  20.60012000 17.85828000  21.37556000  18.84996000 16.43524000  22.20424000  19.75648000 17.96620000  23.85704000  20.64080000 19.08528000  23.11792000  19.38184000 19.20576000  22.80992000  20.99568000
 17.50308000  21.84012000  19.83876000 18.43176000  22.97036000  20.19664000 16.76636000  21.46520000  20.64900000 18.13644000  21.01216000  19.42680000 16.94284000  22.19744000  18.90892000 18.97008000  22.82468000  21.15004000 17.89864000  23.91116000  20.04560000 19.19360000  23.05080000  19.39748000
 17.45808000  21.83244000  19.81656000 18.47240000  22.99984000  20.20020000 16.80224000  21.40060000  20.51052000 18.11356000  20.91976000  19.70356000 16.97884000  22.14060000  18.84056000 19.20644000  22.80016000  21.01452000 17.80132000  23.87356000  20.46344000 19.05716000  23.06696000  19.26740000
 17.50216000  21.82884000  19.80788000 18.46492000  22.97876000  20.17100000 17.27804000  21.35716000  20.82980000 17.84812000  21.12576000  19.09292000 16.46092000  22.01516000  19.40572000 18.45840000  22.97380000  21.23004000 17.98384000  23.97672000  19.93196000 19.49416000  23.04716000  19.76084000
 17.48540000  21.83120000  19.82400000 18.46264000  22.98684000  20.15848000 16.74580000  21.55812000  20.59760000 18.00416000  20.87928000  19.71852000 16.87300000  22.12300000  18.91292000 19.33388000  22.66444000  20.68324000 17.99964000  23.66052000  21.03272000 18.79408000  23.48620000  19.26392000
 17.46048000  21.84888000  19.83176000 18.45332000  22.97456000  20.17812000 17.98140000  20.81980000  20.03452000 17.38484000  21.88612000  18.66332000 16.56440000  21.83724000  20.36340000 18.32828000  23.50852000  21.12800000 18.39004000  23.65420000  19.33644000 19.50980000  22.60132000  20.35640000
 17.48432000  21.85172000  19.81488000 18.45968000  22.96232000  20.16448000 16.90632000  21.56112000  20.75764000 17.99104000  20.85248000  19.48964000 16.69104000  22.16340000  19.00216000 19.30304000  22.74984000  20.86712000 17.90276000  23.68172000  20.89196000 19.00468000  23.41048000  19.23756000
 17.49032000  21.84792000  19.82628000 18.45472000  22.95068000  20.19628000 16.54252000  22.30828000  19.43868000 17.11948000  21.14012000  20.65280000 17.93536000  21.23640000  19.07068000 19.12016000  23.23148000  19.26520000 19.17548000  22.68864000  20.97332000 17.89316000  23.99796000  20.33028000
 17.47672000  21.85312000  19.81744000 18.46980000  22.95900000  20.17804000 17.01524000  21.47920000  20.70512000 17.98376000  20.99728000  19.37176000 16.60184000  22.15400000  19.10460000 19.51696000  22.63024000  20.25608000 18.05872000  23.30996000  21.17020000 18.59228000  23.87168000  19.44604000
 17.48604000  21.82916000  19.79356000 18.46128000  22.97872000  20.20076000 17.81632000  20.96444000  20.32284000 17.26976000  21.59484000  18.72336000 16.47972000  22.13980000  20.15988000 18.98232000  22.61396000  21.04780000 18.08620000  23.92388000  20.49160000 19.12524000  23.25528000  19.32216000
 17.49236000  21.83616000  19.82096000 18.45204000  22.96736000  20.19524000 16.49828000  22.28508000  19.89244000 17.41560000  20.94932000  20.44760000 17.60252000  21.40964000  18.82868000 19.17832000  23.06772000  19.26880000 19.08956000  22.84088000  21.00064000 18.01000000  23.99176000  20.36868000
 17.47364000  21.86848000  19.83392000 18.45388000  22.95664000  20.13728000 17.88468000  20.86872000  20.06132000 17.14048000  21.72612000  18.79160000 16.70124000  21.92524000  20.60628000 19.43988000  22.58644000  20.18040000 18.34840000  23.23824000  21.19076000 18.48068000  23.94208000  19.51256000
 17.48144000  21.84580000  19.85116000 18.48432000  22.94376000  20.12984000 16.68328000  21.90344000  20.57112000 17.90540000  20.81488000  19.91576000 16.99308000  22.09588000  18.87676000 17.96328000  23.90260000  19.99072000 19.43112000  23.00288000  19.60348000 18.56360000  22.99116000  21.26848000
 17.45224000  21.84752000  19.84588000 18.48852000  22.95536000  20.14588000 17.77072000  20.95048000  20.31632000 17.46340000  21.68016000  18.73584000 16.44948000  22.07552000  20.15628000 19.05780000  23.44860000  19.37296000 19.15244000  22.52488000  20.93728000 17.94332000  23.87220000  20.57936000
 17.44988000  21.85524000  19.81240000 18.49476000  22.96704000  20.16392000 16.65148000  22.18500000  19.19664000 17.00380000  21.40144000  20.67452000 17.98352000  20.97140000  19.59288000 18.73060000  22.82864000  21.22092000 18.06328000  23.96800000  20.10064000 19.35900000  22.96652000  19.49660000
 17.45068000  21.87964000  19.83712000 18.47236000  22.95704000  20.16340000 16.83508000  21.59444000  20.66268000 18.05664000  20.94544000  19.60888000 16.75472000  21.95960000  18.99128000 18.28724000  23.72528000  21.00812000 18.74232000  23.43484000  19.11920000 19.37268000  22.48972000  20.60356000
 17.43800000  21.89120000  19.84340000 18.48144000  22.93656000  20.16588000 17.17564000  21.88268000  18.80156000 16.62004000  21.87396000  20.52240000 17.87232000  20.91472000  19.90880000 19.58184000  22.49832000  20.14204000 18.41456000  23.40712000  21.13392000 18.42716000  23.67872000  19.38072000
 17.47144000  21.84388000  19.86764000 18.47416000  22.96220000  20.14444000 16.74248000  21.74280000  20.76576000 17.86880000  20.95916000  19.39688000 16.86960000  22.03220000  18.95776000 18.28576000  23.91012000  19.48120000 19.54068000  22.55408000  20.04940000 18.47224000  23.31560000  21.20520000
 17.43140000  21.84180000  19.84064000 18.49532000  22.98336000  20.14972000 17.13664000  21.26224000  20.71160000 17.83788000  21.19508000  19.10040000 16.51964000  22.19452000  19.35312000 18.51676000  24.06704000  19.71812000 19.49744000  22.43204000  20.02408000 18.49620000  23.13604000  21.20736000
 17.43512000  21.84460000  19.85384000 18.49964000  22.97368000  20.16512000 17.24280000  21.09364000  20.64060000 17.81008000  21.38516000  18.92712000 16.44444000  22.21812000  19.36012000 18.13332000  23.92052000  20.20108000 19.33528000  22.90504000  19.46228000 18.94324000  22.84644000  21.18244000
 17.47352000  21.88436000  19.82648000 18.47804000  22.91084000  20.18116000 16.49728000  22.25788000  20.14784000 17.70440000  20.90900000  20.15896000 17.24760000  21.72720000  18.76160000 18.00840000  23.45120000  21.03584000 18.72800000  23.66864000  19.36652000 19.52276000  22.62940000  20.43804000
 17.44228000  21.85816000  19.81488000 18.48740000  22.96140000  20.19172000 17.33508000  21.73680000  18.75048000 16.49552000  22.06448000  20.30568000 17.88908000  20.92848000  20.20352000 19.44000000  22.53364000  20.46688000 18.10856000  23.57544000  20.95936000 18.70112000  23.51492000  19.23528000
 17.47504000  21.85308000  19.81772000 18.47652000  22.97196000  20.17368000 17.54272000  21.33116000  18.83108000 16.42920000  22.15816000  19.88688000 17.49952000  20.97728000  20.49344000 19.61772000  22.79628000  19.74812000 18.61792000  23.01616000  21.23340000 18.00148000  24.00900000  19.90968000
 17.46148000  21.86776000  19.81204000 18.46972000  22.93732000  20.19408000 17.66284000  21.35060000  18.81820000 16.48068000  22.25684000  19.76396000 17.57580000  21.09372000  20.61720000 19.50912000  22.83044000  19.74428000 18.66124000  23.12244000  21.23420000 18.06200000  23.87176000  19.74932000
 17.45616000  21.87052000  19.82376000 18.49272000  22.92916000  20.17884000 17.78452000  21.37168000  18.90448000 16.38100000  22.24624000  19.64828000 17.33208000  21.17084000  20.63068000 19.27948000  22.82852000  19.43480000 18.96924000  23.02920000  21.17148000 17.99432000  23.94388000  20.17912000
 17.48932000  21.83116000  19.82668000 18.45984000  22.96888000  20.16000000 17.57860000  21.57144000  18.77872000 16.53076000  22.22932000  20.02000000 17.56760000  20.86756000  20.41080000 19.28536000  23.03880000  19.46012000 18.75752000  22.90636000  21.21876000 18.01776000  23.97272000  20.27004000
 17.50460000  21.83972000  19.79300000 18.46764000  22.97156000  20.19952000 17.41404000  20.85332000  20.35652000 17.47028000  21.56012000  18.77028000 16.46388000  22.25664000  19.90848000 18.02184000  23.81400000  20.79300000 19.00888000  23.46440000  19.35836000 19.08380000  22.50344000  20.90268000
 17.49068000  21.83312000  19.82064000 18.43928000  22.97272000  20.17192000 16.96612000  22.18776000  18.92740000 16.82956000  21.64384000  20.62072000 18.02320000  20.81572000  19.54572000 18.65700000  22.93720000  21.25340000 18.10488000  24.01956000  20.18484000 19.38532000  22.91280000  19.55612000
 17.48988000  21.86628000  19.78620000 18.43588000  22.95784000  20.24696000 17.98460000  20.91540000  19.91988000 17.38088000  21.87652000  18.66480000 16.51048000  21.86676000  20.21780000 18.41540000  23.83328000  19.66672000 19.35032000  22.59552000  19.88916000 18.37432000  23.21156000  21.24648000
 17.44604000  21.85520000  19.77628000 18.47892000  22.94996000  20.24712000 17.72324000  20.91824000  20.24988000 17.73496000  21.65312000  18.70164000 16.44528000  22.12248000  19.82796000 18.01604000  23.95172000  20.29156000 19.17600000  23.13128000  19.43872000 18.93000000  22.74824000  21.21164000
 17.48204000  21.86656000  19.77292000 18.44492000  22.95744000  20.21940000 17.27428000  21.13184000  20.53288000 17.93584000  21.13256000  19.08748000 16.60284000  22.29896000  19.34840000 17.99432000  23.88884000  20.36444000 19.28340000  23.14204000  19.50668000 18.91120000  22.70612000  21.25176000
 17.49960000  21.87604000  19.76556000 18.42828000  22.95324000  20.23984000 17.37476000  22.04608000  18.68664000 16.58744000  21.78836000  20.39988000 17.91964000  20.86240000  19.73224000 18.69416000  23.68996000  19.43444000 19.35244000  22.40328000  20.54064000 18.06228000  23.44740000  21.14212000
 17.47104000  21.85604000  19.73204000 18.46844000  22.96352000  20.26388000 17.18448000  21.97372000  18.69248000 16.50320000  21.84728000  20.33136000 17.91936000  20.78580000  19.90816000 18.54168000  23.86608000  19.61344000 19.50196000  22.60652000  20.21768000 18.20204000  23.27396000  21.28540000
 17.49740000  21.86960000  19.73028000 18.45192000  22.93100000  20.26632000 16.63620000  21.94672000  20.47536000 17.77836000  20.83272000  19.69840000 17.26796000  21.98800000  18.70484000 19.48304000  22.62828000  20.21084000 18.33460000  23.34420000  21.29672000 18.23508000  23.83928000  19.65424000
 17.47708000  21.86992000  19.77600000 18.45668000  22.94516000  20.22740000 16.75740000  21.43392000  20.47584000 18.15872000  21.02812000  19.39976000 16.88016000  22.30812000  18.98588000 19.44120000  22.45924000  20.41060000 18.04256000  23.38072000  21.13968000 18.64052000  23.79648000  19.54800000
 17.49980000  21.88616000  19.76132000 18.45424000  22.93236000  20.22472000 17.69336000  21.66496000  18.67084000 16.40688000  22.17548000  19.78252000 17.52924000  20.90232000  20.30516000 17.92060000  23.71584000  20.81908000 19.09328000  23.30716000  19.45060000 19.03596000  22.59980000  21.13788000
 17.45748000  21.87896000  19.74928000 18.46280000  22.93928000  20.25584000 17.27796000  21.24220000  20.57276000 17.83136000  21.25304000  18.95484000 16.52916000  22.15692000  19.37548000 19.26728000  23.04476000  19.53696000 19.02020000  22.69228000  21.26504000 18.15588000  23.97960000  20.23372000
 17.44748000  21.89600000  19.79432000 18.48944000  22.91704000  20.20744000 17.85652000  21.30276000  18.98296000 16.58020000  22.25532000  19.24220000 17.13100000  21.19776000  20.54256000 19.11100000  22.46396000  21.03904000 18.05272000  23.82116000  20.69844000 19.15136000  23.39016000  19.47396000
 17.45432000  21.88188000  19.74868000 18.50944000  22.92636000  20.22708000 16.52744000  22.49400000  19.66188000 17.22536000  21.24116000  20.65468000 17.64436000  21.23252000  18.86748000 17.99588000  23.80492000  20.62008000 19.10948000  23.22768000  19.36068000 19.06100000  22.48788000  21.12416000
 17.43424000  21.89176000  19.77400000 18.51932000  22.90852000  20.23676000 17.56664000  20.94452000  20.35696000 17.43260000  21.61960000  18.67752000 16.51860000  22.49368000  19.81552000 19.14736000  23.15128000  19.38180000 19.05748000  22.60952000  21.09388000 17.96212000  23.76468000  20.54596000
 17.45964000  21.87940000  19.79340000 18.50696000  22.91544000  20.21612000 17.73236000  21.20156000  18.94056000 16.67908000  22.55412000  19.40864000 16.98800000  21.23280000  20.57048000 19.56104000  22.68044000  20.14080000 18.21968000  23.15752000  21.21580000 18.34936000  23.82124000  19.61028000
 17.44196000  21.90712000  19.80120000 18.47808000  22.93212000  20.19556000 17.83836000  20.94620000  20.15012000 17.41712000  21.93128000  18.73088000 16.48416000  21.90676000  20.28128000 19.39040000  22.63212000  19.66420000 18.55712000  22.71224000  21.27260000 18.39724000  23.99048000  19.93968000
 17.46204000  21.89184000  19.73684000 18.50236000  22.90568000  20.26636000 17.21544000  21.29300000  20.64052000 17.59244000  21.22600000  18.78956000 16.57496000  22.48464000  19.66620000 19.49788000  22.77540000  19.85436000 18.49204000  23.07944000  21.34148000 18.18256000  23.75728000  19.66960000
 17.40916000  21.90408000  19.76144000 18.50864000  22.93276000  20.24276000 18.03060000  21.13064000  19.20304000 16.64768000  22.16616000  19.05096000 16.96172000  21.31032000  20.61444000 18.53972000  22.97868000  21.35928000 18.45224000  23.97712000  19.87408000 19.47944000  22.58472000  19.84808000
 17.46648000  21.88736000  19.75024000 18.49436000  22.90156000  20.24096000 16.85188000  21.66524000  20.59716000 17.70680000  20.84232000  19.31368000 16.85372000  22.46752000  19.06988000 19.56964000  22.66920000  19.96448000 18.45796000  23.19352000  21.31128000 18.15832000  23.88040000  19.84856000
 17.40204000  21.89168000  19.75864000 18.50588000  22.95232000  20.25148000 16.36252000  21.90244000  20.08656000 17.93940000  20.96480000  20.04316000 17.39064000  21.79464000  18.66472000 19.43376000  22.63068000  19.66780000 18.70804000  22.75736000  21.37552000 18.39436000  24.01228000  20.04184000
 17.41448000  21.87028000  19.78080000 18.49716000  22.94404000  20.25024000 16.37168000  22.16440000  19.98068000 17.65184000  20.81828000  19.98052000 17.52704000  21.85744000  18.68132000 19.22528000  22.53752000  20.91868000 18.17680000  23.87492000  20.72360000 19.23160000  23.16340000  19.34540000