LAMMPS (7 Aug 2019)
#lammps input to simulate amorphous TiO2 using the MA potential

#Initialization
units metal
dimension 3
atom_style atomic #Atomic system with charges

read_data conf.lmp
  orthogonal box = (-20 -20 -20) to (20 20 20)
  1 by 1 by 1 MPI processor grid
  reading atoms ...
  8 atoms
  read_data CPU = 0.000161171 secs

#Interatomic potentials - DeepMD
pair_style	deepmd ./graph1.pb ./graph2.pb ./graph3.pb
#pair_style	deepmd graph1.pb
pair_coeff


#MD parameters
timestep 0.0005 #ps
velocity all create 300.0 1815191 mom yes rot yes dist gaussian

#Run MD - equil at 330K
run_style verlet #Velocity verlet
fix 1 all nvt temp 300 300 0.1 #NH thermostat - 330K with 100 fs frequency
fix 2 all momentum 1 linear 0 0 0 #Remove total linear momentum of the system at each step
fix 3 all recenter INIT INIT INIT
fix 4 all plumed plumedfile plumed.in outfile plumed.out
thermo_style custom step temp pe etotal press #Setting printing
thermo 100 #Ouputing thermodynamic properties
dump 1 all atom 100 pos.lammpstrj
#dump 2 all custom 100 vel.xyz id type vx vy vz
timer timeout 0:20:00 every 100
New timer settings: style=normal  mode=nosync  timeout=00:20:00
run 20000000 #10 ns
Neighbor list info ...
  update every 1 steps, delay 10 steps, check yes
  max neighbors/atom: 2000, page size: 100000
  master list distance cutoff = 7
  ghost atom cutoff = 7
  binsize = 3.5, bins = 12 12 12
  1 neighbor lists, perpetual/occasional/extra = 1 0 0
  (1) pair deepmd, perpetual
      attributes: , newton on
      pair build: full/bin/atomonly
      stencil: full/bin/3d
      bin: standard
Per MPI rank memory allocation (min/avg/max) = 3.701 | 3.701 | 3.701 Mbytes
Step Temp PotEng TotEng Press 
       0          300   -406.91138   -406.63993    18.772286 
     100    146.77675   -406.74614   -406.61333   -56.251088 
     200    234.55072   -406.75083    -406.5386    56.473729 
     300    209.81911   -406.61039   -406.42054   -45.497272 
     400    297.79974   -406.63758   -406.36812    16.441564 
     500    122.73618   -406.43171   -406.32066    41.827293 
     600    124.52902   -406.40796   -406.29528   -21.571429 
     700    273.48304   -406.53053   -406.28308    34.413718 
     800     310.6876    -406.5897   -406.30858    9.0834529 
     900    367.64636   -406.64542   -406.31277    -33.25048 
    1000    346.92579   -406.72898   -406.41507    34.489513 
    1100    306.08188   -406.74659   -406.46964   -52.712806 
    1200    238.77459   -406.72385    -406.5078    25.894138 
    1300    304.43039   -406.80171   -406.52626    -17.42127 
    1400    197.30141    -406.6779   -406.49938   -8.1763243 
    1500    260.42744   -406.64447   -406.40883    29.038674 
    1600    256.09362   -406.58513   -406.35341   -17.317919 
    1700    405.60832   -406.70649   -406.33949    32.747506 
    1800    307.82921   -406.67544   -406.39691   -1.1833067 
    1900    216.09586   -406.53464   -406.33911   -3.1931236 
    2000    382.66918   -406.72703   -406.38078    16.886751 
    2100    223.13323   -406.52908   -406.32719   -25.397441 
    2200    539.11116   -406.80358   -406.31578    5.8584197 
    2300    254.81481   -406.57847   -406.34791    4.7604562 
    2400    330.30764   -406.75826   -406.45939   -33.663205 
    2500     185.7734   -406.66428   -406.49619    31.590364 
    2600    224.66681   -406.69842   -406.49514    -27.85845 
    2700    176.05603   -406.62529   -406.46599    29.719508 
    2800    216.63894   -406.61675   -406.42073   -13.693306 
    2900     153.8877   -406.57099   -406.43175    13.962124 
    3000    412.65653     -406.743   -406.36962   -16.014668 
    3100    379.98158   -406.57045   -406.22664   -5.4307501 
    3200    646.54662   -406.69173   -406.10673    22.785327 
    3300    648.89383   -406.59521   -406.00808   -41.866248 
    3400    634.57381    -406.6197   -406.04552  -0.62324763 
    3500     554.6586   -406.70285   -406.20098    3.2251597 
    3600    242.99524   -406.57816   -406.35829   -7.6762681 
    3700    358.87588     -406.717   -406.39228    15.638177 
    3800    254.79059    -406.6293   -406.39876   -7.0691494 
    3900    164.41652   -406.55979   -406.41102    13.171809 
    4000    330.28155   -406.70887   -406.41003    -3.514532 
    4100    282.99578   -406.65425   -406.39819   -14.635661 
    4200    377.13431   -406.71011   -406.36887    24.641551 
    4300    307.85272   -406.59294   -406.31439   -36.810044 
    4400    308.96146   -406.53066    -406.2511     14.69132 
    4500    289.58342   -406.40129   -406.13927    21.453658 
    4600    408.78909   -406.45922   -406.08934   -30.378011 
    4700    366.53808   -406.55344   -406.22179    15.700213 
    4800    287.88249    -406.6153   -406.35482    6.2169372 
    4900     291.7858   -406.72963   -406.46562   -10.508435 
    5000    255.61512   -406.70612   -406.47483    17.786731 
    5100    221.36039   -406.63107   -406.43078   -35.729359 
    5200    411.18479   -406.71723   -406.34518    44.609286 
    5300      282.696   -406.57666   -406.32087   -46.358853 
    5400    348.41209   -406.62812   -406.31287    27.453878 
    5500    319.68105   -406.67756    -406.3883   -0.4410876 
    5600    217.33611    -406.6643   -406.46765   -21.505731 
    5700    215.83241   -406.71382   -406.51853    32.005951 
    5800    186.61612   -406.74505    -406.5762   -26.899982 
    5900    254.05787   -406.75267   -406.52279    21.056844 
    6000    224.98623    -406.6775   -406.47393   -14.605627 
    6100    261.20723   -406.62081   -406.38447   -7.1579689 
    6200    402.65245   -406.66882   -406.30449    20.999616 
    6300    238.13949    -406.4622   -406.24673   -47.437446 
    6400    391.31547   -406.58556   -406.23149    44.747698 
    6500    354.31756   -406.58947   -406.26887   0.12223506 
    6600     406.0955   -406.65662   -406.28918   -43.838791 
    6700    291.97121    -406.6213   -406.35712    57.666882 
    6800    138.73207   -406.49007   -406.36454    -57.16765 
    6900    423.97133   -406.77134   -406.38772    42.838369 
    7000    199.55534    -406.5409   -406.36034    -30.51596 
    7100    383.80442   -406.69461   -406.34734    20.757386 
    7200    289.54697   -406.62054   -406.35855    2.3166265 
    7300    246.48653   -406.59166   -406.36863   -20.546508 
    7400    319.64375   -406.60261   -406.31339    31.143472 
    7500    326.48439   -406.66754   -406.37213   -7.0050301 
    7600    224.60749   -406.55056   -406.34733   -30.927648 
    7700    404.87373    -406.7191   -406.35276    60.513191 
    7800    101.98877   -406.42461   -406.33232   -55.339663 
    7900    480.70752   -406.73786    -406.3029    51.590754 
    8000    204.73848   -406.55031   -406.36505   -28.483846 
    8100    232.86145   -406.66878   -406.45808 -0.0093866637 
    8200    164.12163    -406.6236    -406.4751    17.334541 
    8300    246.62513   -406.72715     -406.504   -25.667948 
    8400    191.92192   -406.66529   -406.49164    18.435618 
    8500    335.72018   -406.76387    -406.4601    9.5730643 
    8600    193.69873   -406.60657    -406.4313   -38.245606 
    8700    453.98004   -406.74191   -406.33114    49.309821 
    8800    273.58278   -406.54783   -406.30029   -28.453928 
    8900    393.24117   -406.67876   -406.32294   -6.8191922 
    9000    377.80111   -406.63346   -406.29161    34.149175 
    9100    263.26519    -406.5342   -406.29599   -39.316973 
    9200    359.47247   -406.70067   -406.37541    13.140298 
    9300    263.63453   -406.65111   -406.41257    3.7723734 
    9400    296.05214   -406.74003   -406.47215   -12.100925 
    9500    151.47272   -406.58929   -406.45223     7.417203 
    9600    185.04286   -406.56272   -406.39529   -1.0170217 
    9700    423.78504   -406.74823   -406.36478  -0.43651056 
    9800     288.2831    -406.6382   -406.37735   -4.5138013 
    9900    297.26266   -406.63903   -406.37006    11.587009 
   10000    356.86771   -406.67117   -406.34827    4.0901545 
   10100    281.05521    -406.6769    -406.4226   -16.098942 
   10200    253.95551   -406.66157   -406.43178    14.643736 
   10300    265.68223   -406.71514   -406.47475   0.92008939 
   10400     221.5836   -406.70888   -406.50839    3.8356505 
   10500    362.05044   -406.75164   -406.42405   -12.668385 
   10600    208.07608   -406.65828   -406.47001    17.029252 
   10700     234.5842   -406.64956    -406.4373   -14.079912 
   10800    304.79761   -406.65188    -406.3761   -2.1146445 
   10900    190.43904   -406.49374   -406.32142    5.5024344 
   11000    580.98592   -406.72757   -406.20189    28.586918 
   11100    544.81109   -406.64311   -406.15016   -60.128979 
   11200    386.47378   -406.54986   -406.20017    25.507987 
   11300    263.96663   -406.54111   -406.30226    19.825059 
   11400    229.03729   -406.61268   -406.40545   -12.193313 
   11500    341.00762   -406.71881   -406.41026   -10.256446 
   11600    282.31665   -406.61712   -406.36168    23.419489 
   11700     344.9592   -406.70244   -406.39031    -27.93338 
   11800    323.50869   -406.66366   -406.37094    16.683271 
   11900    197.96988   -406.63649   -406.45736   -1.3175616 
   12000     216.7795   -406.67416   -406.47801   -8.4428824 
   12100    296.76833   -406.65741   -406.38889    14.230719 
   12200    464.66771   -406.70151   -406.28107   -8.0455829 
   12300    525.68656   -406.56026   -406.08461   -5.0408961 
   12400    473.52621   -406.55278   -406.12432     31.82247 
   12500    412.18583   -406.53552   -406.16257   -42.606686 
   12600     443.8111   -406.67568   -406.27411    22.171335 
   12700    434.52885   -406.70096   -406.30778    11.301495 
   12800    295.43726   -406.77668   -406.50936   -21.372787 
   12900    255.15304   -406.70084   -406.46997    20.657263 
   13000      236.689   -406.64048   -406.42632   -4.8241356 
   13100     269.4276   -406.69794   -406.45416   -12.423145 
   13200    214.86533   -406.70202   -406.50761    10.824939 
   13300    157.04588   -406.59129   -406.44919  -0.10998608 
   13400    383.25645   -406.66356   -406.31679   -2.8817442 
   13500     498.7882    -406.6271   -406.17579   -18.935057 
   13600    424.41455    -406.5187   -406.13468    28.758594 
   13700    532.38049   -406.69531    -406.2136    -5.532928 
   13800    337.44188   -406.65975   -406.35443   -31.832798 
   13900    283.81214   -406.59071   -406.33391    41.713188 
   14000    267.79444   -406.54739   -406.30508   -28.470706 
   14100    362.04376   -406.66649    -406.3389    26.539325 
   14200    193.67112   -406.55554    -406.3803   -19.852728 
   14300    266.30683   -406.61915   -406.37819     11.98126 
   14400    410.18645   -406.74847   -406.37732    11.139186 
   14500    225.50128   -406.59637   -406.39233   -28.690786 
   14600    219.34893    -406.6716   -406.47313    31.408047 
   14700    193.02568    -406.6987   -406.52405   -28.482409 
   14800    120.26014   -406.66634   -406.55752    22.194898 
   14900    184.22537   -406.72631   -406.55962   -3.6121538 
   15000    166.34403   -406.73982   -406.58931   -24.263498 
   15100    246.03779   -406.65227   -406.42965    50.915794 
   15200    404.46179   -406.65795   -406.29199     -58.8922 
   15300    656.58761   -406.74464   -406.15055    28.087711 
   15400     436.0465   -406.69421   -406.29967    14.389886 
   15500    389.50438   -406.62185   -406.26942   -36.592106 
   15600    220.77626   -406.55099   -406.35123    39.413915 
   15700    348.09641   -406.71804   -406.40308   -8.8956099 
   15800    237.79508   -406.61782   -406.40265   -29.675515 
   15900    276.04541   -406.68582   -406.43605    45.706684 
   16000    187.57061   -406.61341   -406.44369   -41.808586 
   16100    297.99539     -406.686   -406.41637    30.747939 
   16200    323.84373   -406.73755   -406.44453   -14.023709 
   16300    182.81445   -406.65918   -406.49377   -12.689751 
   16400    172.41882   -406.69485   -406.53884     30.95003 
   16500    168.88625   -406.72001    -406.5672   -31.877786 
   16600    250.49496    -406.7693   -406.54264    6.8387252 
   16700    102.70363   -406.54741   -406.45448    23.047972 
   16800    355.13656    -406.6607   -406.33936   -30.357085 
   16900    420.87513   -406.54527   -406.16445    6.2995014 
   17000    304.19679   -406.44272   -406.16748    8.7666124 
   17100    360.24942   -406.60335   -406.27739    -1.283209 
   17200     447.7482   -406.75963    -406.3545   -23.252289 
   17300    187.98845   -406.57678   -406.40668    5.9190867 
   17400    256.34215   -406.54696   -406.31501    10.935339 
   17500    346.71923   -406.66705   -406.35333   -6.0974962 
   17600    290.95411   -406.67523   -406.41197   -17.364708 
   17700    264.42362   -406.64972   -406.41046    32.429255 
   17800    286.06357   -406.70184     -406.443   -33.595487 
   17900    251.67932    -406.7084   -406.48068    9.8549446 
   18000    176.94019   -406.70315   -406.54305    13.259603 
   18100    158.28272   -406.74236   -406.59914   -27.260869 
   18200    153.91795   -406.75091   -406.61164    20.512732 
   18300    182.78276    -406.7662   -406.60082    1.3045158 
   18400    234.61823   -406.70037   -406.48808   -20.831165 
   18500    443.16034   -406.64286   -406.24187    26.123045 
   18600    266.64019   -406.52985   -406.28859   -12.061508 
   18700    313.94455   -406.58138   -406.29731    10.710984 
   18800     390.5158    -406.6417   -406.28835   -12.196136 
   18900    386.18807   -406.62552   -406.27609    6.7077634 
   19000    292.18229   -406.76089   -406.49652    9.2214898 
   19100    189.93008   -406.59686     -406.425   -27.420234 
   19200    291.60675    -406.7011   -406.43725    31.507743 
   19300    416.03248    -406.7515   -406.37506   -7.8825093 
   19400    380.70489   -406.71777    -406.3733   -34.093664 
   19500    357.42806   -406.74204   -406.41863    36.601029 
   19600     461.3568    -406.7313   -406.31386   -12.758808 
   19700    239.53307   -406.70287   -406.48613   -27.007632 
   19800    256.55702   -406.79392   -406.56178    46.205099 
   19900    322.49501   -406.68644   -406.39464   -55.251037 
   20000    232.78177   -406.67514   -406.46451    39.685034 
   20100    223.55163    -406.6615   -406.45923     3.143645 
   20200    144.70944   -406.54295   -406.41201    -25.35639 
   20300    444.67026   -406.69225    -406.2899    21.189562 
   20400    258.43076   -406.56426   -406.33043    15.041401 
   20500    434.90683   -406.63162   -406.23811   -30.138834 
   20600    322.82472   -406.59439   -406.30229     8.775229 
   20700    351.83573   -406.71478   -406.39643    21.040089 
   20800    207.18581   -406.64522   -406.45775   -28.716648 
   20900    267.14373   -406.72727   -406.48555    19.887792 
   21000    299.69231    -406.7673   -406.49613    11.766287 
   21100    178.17773   -406.64655   -406.48533   -33.569144 
   21200    525.80276   -406.82189   -406.34613    48.022581 
   21300    224.07824   -406.57876   -406.37601   -51.632723 
   21400    462.51593   -406.71783   -406.29934    32.893537 
   21500    237.76553   -406.50989   -406.29475   -10.486549 
   21600    410.22191   -406.58409   -406.21291   -11.730245 
   21700    584.06267   -406.66327    -406.1348    25.019594 
   21800    321.32924   -406.49267   -406.20192   -39.215274 
   21900    252.72276   -406.52178   -406.29311    41.092697 
   22000    251.40569   -406.55687    -406.3294   -12.246055 
   22100    361.04977   -406.71507   -406.38839    -15.14386 
   22200    119.60911    -406.5374   -406.42917     23.57661 
   22300    327.68358   -406.75067   -406.45418   -13.423192 
   22400    171.55984   -406.60398   -406.44875   -1.6713637 
   22500    383.41413   -406.78969   -406.44277    20.789035 
   22600    132.82132   -406.52849   -406.40831   -22.573908 
   22700    507.50973   -406.76854   -406.30933    30.186586 
   22800    254.23455   -406.41891   -406.18887   -29.387806 
   22900    453.87425    -406.5188   -406.10813    21.637836 
   23000    536.96859   -406.64236    -406.1565    13.174258 
   23100    344.48527   -406.64732   -406.33562   -24.973953 
   23200     303.4236   -406.65708   -406.38254    21.402207 
   23300    210.42923   -406.62972   -406.43932   -10.162191 
   23400    232.89584   -406.64618   -406.43545   -10.516373 
   23500    271.78107   -406.64999   -406.40407    37.076987 
   23600     131.2864   -406.50624   -406.38745   -39.353278 
   23700     435.9283   -406.72825   -406.33381    31.300019 
   23800    475.84762    -406.6225   -406.19194   -12.873209 
   23900    320.20297   -406.49547   -406.20575   -19.438834 
   24000    438.50384   -406.74506   -406.34829    35.346246 
   24100     134.1352   -406.61966   -406.49829   -48.911835 
   24200    287.63874    -406.7608   -406.50053    31.964022 
   24300    251.81019   -406.72428   -406.49644   -10.797659 
   24400    207.93191   -406.67465   -406.48651   -7.7715271 
   24500    339.53392   -406.66349   -406.35627    25.032886 
   24600    396.15094   -406.67233   -406.31388   -28.513782 
   24700    307.03442   -406.61062   -406.33281    16.529591 
   24800    379.32237   -406.67572    -406.3325    -9.483286 
   24900    168.47681    -406.6432   -406.49076   -18.135788 
   25000    286.97101     -406.869   -406.60934    15.840667 
   25100    114.35299   -406.67059   -406.56712   -13.480892 
   25200    261.40372   -406.80295   -406.56643    2.5373308 
   25300    261.06078   -406.68296   -406.44675    13.386402 
   25400     346.3911   -406.68089   -406.36747   -18.404939 
   25500    359.87264    -406.6474   -406.32178    14.552335 
   25600    393.44069    -406.6549   -406.29891   -13.141256 
   25700     383.1642   -406.61972   -406.27302    7.0636258 
   25800     405.0194    -406.6013   -406.23483    -5.795833 
   25900    204.05536   -406.41387   -406.22924    1.2104388 
   26000    347.94517   -406.60085   -406.28602    6.0579032 
   26100    398.49501    -406.6918   -406.33124   -6.9241578 
   26200    257.02573   -406.55098   -406.31842    10.115044 
   26300    275.22721   -406.61581   -406.36677   -9.5545333 
   26400     289.2669    -406.5953   -406.33356    31.843619 
   26500    242.40385   -406.61006   -406.39073   -29.755806 
   26600      305.098   -406.64858   -406.37252    18.692252 
   26700    398.60916   -406.75355   -406.39288   -3.1181397 
   26800    220.38817   -406.59325   -406.39384   -18.223326 
   26900    201.62087   -406.62836   -406.44593     18.50063 
   27000    300.50353   -406.67844   -406.40654    -5.769904 
   27100    421.74115   -406.77692   -406.39532   -13.265717 
   27200    270.84739   -406.69387   -406.44881    30.179271 
   27300    86.444395   -406.59054   -406.51232   -30.642624 
   27400    329.03557   -406.77659   -406.47888    27.058388 
   27500     137.5704   -406.54301   -406.41853   -25.801685 
   27600    450.88527   -406.70476   -406.29679    1.3009808 
   27700    250.76195   -406.60099    -406.3741    13.442017 
   27800    542.62799   -406.71558    -406.2246   -32.370348 
   27900     181.6084   -406.28982    -406.1255    45.384899 
   28000    479.03669   -406.55222   -406.11878   -22.750793 
   28100    459.24173   -406.69141   -406.27588    4.6954756 
   28200     268.6926   -406.71745   -406.47434    10.956789 
   28300    227.37133    -406.6806   -406.47487   -9.7567657 
   28400    247.32747   -406.70396   -406.48017    2.3489431 
   28500     181.4921   -406.59697   -406.43275    4.8958339 
   28600    268.19242   -406.60024   -406.35757   -7.5835976 
   28700     535.2618   -406.68145   -406.19714    17.535528 
   28800    400.78769    -406.5074   -406.14476   -31.439642 
   28900    409.24497   -406.61063   -406.24033     30.02206 
   29000     322.9124   -406.70275   -406.41057   -7.7752748 
   29100    363.02489   -406.72003   -406.39156   -18.623865 
   29200    332.45436   -406.70108   -406.40027    10.072257 
   29300    381.81953   -406.81103   -406.46555   -7.2076246 
   29400    362.11516   -406.83227   -406.50462    7.9279797 
   29500    494.01425   -406.85578   -406.40878   -9.1630485 
   29600    290.89211   -406.75609   -406.49289    12.711646 
   29700    294.61477   -406.80221   -406.53563    3.1070444 
   29800    331.81953   -406.79761   -406.49738   -13.100188 
   29900    157.47364   -406.76451   -406.62202    12.157499 
   30000     136.8338   -406.75876   -406.63494   -2.3328818 
   30100     183.6352   -406.81276    -406.6466   -10.618716 
   30200    184.86027   -406.69916    -406.5319    22.872041 
   30300    270.22393   -406.57839   -406.33388    -27.71192 
   30400    436.20294   -406.66059   -406.26591     12.39435 
   30500    342.57177   -406.51632   -406.20635   -9.4090705 
   30600    324.21669   -406.58088   -406.28753    1.7984027 
   30700    220.19974   -406.58545   -406.38621   -10.859346 
   30800    298.47435   -406.70754   -406.43747    28.098823 
   30900    373.59236   -406.72848   -406.39044   -20.639606 
   31000    264.66949   -406.71567   -406.47619    6.4033864 
   31100    194.56232   -406.69268   -406.51663   0.90298339 
   31200    205.79519   -406.63646   -406.45025    7.4848122 
   31300    312.92458   -406.72381   -406.44067   -20.657491 
   31400    146.50201   -406.28323   -406.15067    24.763611 
   31500    663.62187   -406.64063   -406.04017    23.714445 
   31600    468.09358   -406.50655   -406.08301   -36.227346 
   31700    506.80845   -406.68943   -406.23086   -12.943701 
   31800    87.777175   -406.37747   -406.29804    45.177106 
   31900    428.50917   -406.78907   -406.40135   -34.376885 
   32000    336.06833   -406.65659   -406.35251   -2.5581661 
   32100     137.9453   -406.50199   -406.37718    17.629611 
   32200    261.20187   -406.67839   -406.44205    1.2302605 
   32300    282.10854   -406.69418   -406.43892   -4.8876982 
   32400    310.44777   -406.72632   -406.44542   -4.0163097 
   32500    88.649824    -406.5295   -406.44928    14.050531 
   32600    305.12464   -406.76053   -406.48445    -6.165007 
   32700    223.87585   -406.70506   -406.50249   -12.716691 
   32800    239.60924   -406.73129   -406.51449    28.141441 
   32900    173.72195   -406.63017   -406.47298   -22.809521 
   33000    334.89444   -406.78051   -406.47749   -2.7534819 
   33100    189.80152   -406.58058   -406.40884    33.346381 
   33200     264.7739    -406.5874   -406.34783   -41.636131 
   33300    483.07838   -406.72934   -406.29224    14.282829 
   33400    261.56585   -406.38832   -406.15165   0.51248966 
   33500    469.22737   -406.67767   -406.25311    17.897641 
   33600    397.57591   -406.73378   -406.37404   -14.799583 
   33700    256.60017   -406.58762   -406.35545    -14.24443 
   33800    239.80633   -406.57053   -406.35354    42.223548 
   33900    430.38999   -406.74604   -406.35661   -39.373875 
   34000    275.12616   -406.61079   -406.36185    -12.37423 
   34100    396.75801   -406.71998   -406.36099    64.060101 
   34200     178.8663   -406.53515   -406.37331   -82.521687 
   34300    298.55958   -406.71534    -406.4452    60.780054 
   34400    259.88652    -406.7269   -406.49175   -16.728209 
   34500     241.5341   -406.72633   -406.50779    -25.64422 
   34600    242.46088   -406.73399   -406.51461    46.000413 
   34700    160.74035   -406.59334    -406.4479   -50.423965 
   34800    296.88896   -406.64787   -406.37924    37.771704 
   34900    437.83936   -406.81897    -406.4228   -8.6651761 
   35000    487.45452   -406.70802   -406.26697   -47.695728 
   35100     419.3385   -406.51473   -406.13531    93.843468 
   35200    369.02328    -406.6041    -406.2702   -67.422312 
   35300    422.17152     -406.778   -406.39602    5.6630204 
   35400    310.81275   -406.67997   -406.39874    39.960084 
   35500    146.39221   -406.57908   -406.44662   -40.931793 
   35600    323.67057   -406.69914   -406.40627    19.452282 
   35700    258.04968   -406.62176   -406.38827   -7.9072689 
   35800    318.56916   -406.67148   -406.38324    3.9535519 
   35900    447.79823   -406.74246   -406.33728    11.968324 
   36000    251.01902   -406.57289   -406.34576   -53.454477 
   36100    364.13746   -406.59897   -406.26949    78.505685 
   36200    239.50858   -406.55379   -406.33708    -52.99901 
   36300    366.06124   -406.82093   -406.48971    8.0011496 
   36400     205.8359   -406.69272   -406.50648    14.294218 
   36500    248.10385   -406.72148   -406.49699   -19.430786 
   36600    197.51445   -406.66163   -406.48292    11.783155 
   36700    225.73963   -406.60275   -406.39849    -6.526371 
   36800    352.14022   -406.62795   -406.30933    12.934767 
   36900    394.26009   -406.59479   -406.23805   -15.111228 
   37000    353.19416   -406.50605   -406.18647    9.4419612 
   37100    389.32396   -406.59635   -406.24408 -0.069594462 
   37200    254.74679   -406.57331   -406.34281   -13.429573 
   37300    263.81838   -406.56155   -406.32284     21.95552 
   37400    183.66281   -406.52195   -406.35577   -19.884255 
   37500    153.20501   -406.53608   -406.39746    20.431433 
   37600    464.92301    -406.7949   -406.37423    -13.19927 
   37700     116.5961   -406.46033   -406.35483    -0.329843 
   37800    413.87842   -406.81655   -406.44207    10.504615 
   37900    79.707469   -406.46866   -406.39654   -12.847528 
   38000    493.79479   -406.85091   -406.40411    9.6744319 
   38100    223.20074   -406.57799   -406.37604   -2.8623789 
   38200    334.16827   -406.63314   -406.33078    -19.68639 
   38300    152.56816   -406.46199   -406.32394    34.835995 
   38400    308.87102   -406.63797   -406.35849   -3.7072232 
   38500    348.66418   -406.60915   -406.29367   -37.991836 
   38600    300.57148   -406.57436    -406.3024    28.093116 
   38700    183.52382   -406.39788   -406.23183    26.810885 
   38800    409.38972   -406.59968   -406.22926   -47.820057 
   38900    389.80439   -406.61785   -406.26514    11.883092 
   39000    278.11677   -406.52715   -406.27551     41.01736 
   39100    396.64414   -406.72196   -406.36306   -42.696065 
   39200    338.83614   -406.80382   -406.49724    12.482616 
   39300    224.15892   -406.71582     -406.513    6.3966497 
   39400    186.78266   -406.64581   -406.47681   -18.304406 
   39500    405.29434    -406.7831   -406.41638    19.454725 
   39600    256.84774   -406.63866   -406.40626   -18.338609 
   39700    433.75353   -406.75054   -406.35807    21.897618 
   39800    308.56085   -406.55254   -406.27334   -40.232885 
   39900    402.12563    -406.6305   -406.26665    16.600528 
   40000    415.91172   -406.65647   -406.28015    23.866811 
   40100    234.07151   -406.53331   -406.32152   -51.646016 
   40200    312.06188   -406.73644   -406.45408     39.24288 
   40300    285.46362    -406.7962   -406.53791   -4.9322291 
   40400     212.3639   -406.72198   -406.52983   -21.185145 
   40500    300.14818   -406.78393   -406.51234      25.2751 
   40600    281.95862   -406.64497   -406.38985   -26.226515 
   40700    451.55346   -406.73431   -406.32573    32.071829 
   40800    319.85577   -406.58736   -406.29795   -28.243433 
   40900    363.95157   -406.57393   -406.24462   -13.075469 
   41000    388.41581   -406.55936   -406.20791    58.492976 
   41100    233.52601   -406.57744   -406.36615   -51.219567 
   41200    362.45647   -406.78033   -406.45237    10.153566 
   41300     229.8023   -406.68514   -406.47721    12.464038 
   41400    157.82263   -406.65592   -406.51312    -21.92977 
   41500    364.66348   -406.82864   -406.49869     22.43895 
   41600    145.16096   -406.52112   -406.38978   -19.672283 
   41700    330.90322   -406.62517   -406.32577    31.200271 
   41800    586.58757   -406.75297   -406.22221   -24.193658 
   41900    499.11144   -406.67484   -406.22324   -19.132228 
   42000    324.82052   -406.52363   -406.22973    53.197098 
   42100    305.50959   -406.61503    -406.3386   -34.326098 
   42200    318.05392   -406.74724   -406.45946    -3.456317 
   42300    254.47208   -406.68526   -406.45501    7.0408984 
   42400    226.11628   -406.65265   -406.44806    7.8057704 
   42500    198.55729   -406.62938   -406.44972   -17.341028 
   42600    320.04978   -406.71814   -406.42855    21.967304 
   42700    338.16656   -406.61762   -406.31164   -21.902747 
   42800    329.11992   -406.49237   -406.19457    13.744298 
   42900    509.13865   -406.61014   -406.14946    7.2156099 
   43000    206.17405    -406.4006   -406.21405   -11.852477 
   43100    380.98934   -406.67071   -406.32598    2.4299525 
   43200    153.32458    -406.5634   -406.42467    7.2457088 
   43300    272.42909   -406.73772   -406.49122    -11.96637 
   43400    161.39524   -406.62159   -406.47556    20.244814 
   43500    312.04558    -406.7659   -406.48355   -27.069676 
   43600    125.57483   -406.54667   -406.43305    34.133992 
   43700    372.14057    -406.6911   -406.35438   -33.131463 
   43800     252.5011   -406.44603   -406.21757     13.87331 
   43900    494.69199   -406.59459   -406.14699    11.582715 
   44000    465.35276   -406.57885   -406.15779   -31.958844 
   44100    448.31819    -406.5564   -406.15076    23.864864 
   44200    347.65836   -406.63235   -406.31778   -1.5577795 
   44300    283.55236   -406.67008   -406.41351   -13.251521 
   44400    242.18134   -406.67302   -406.45388   -2.7122804 
   44500    200.73981   -406.61104   -406.42941    13.099288 
   44600    299.25071     -406.715   -406.44423   -3.2725757 
   44700    294.95997   -406.66233   -406.39545    -15.09941 
   44800    273.28241    -406.5836   -406.33633    15.245463 
   44900    464.70817   -406.65271   -406.23223    23.224284 
   45000    353.51457   -406.45375   -406.13389   -68.550802 
   45100    439.71954   -406.46222   -406.06435    55.344906 
   45200    331.61808   -406.39143   -406.09137   -6.0878551 
   45300     410.3854   -406.59234   -406.22102   -29.568633 
   45400    217.76966   -406.58139   -406.38435    34.872611 
   45500    306.92152   -406.72428   -406.44657   -18.603463 
   45600     285.7862   -406.68808   -406.42949   -8.6318696 
   45700    308.38176   -406.69928   -406.42025     28.09357 
   45800    116.05276   -406.59216   -406.48716   -44.576968 
   45900    276.96335   -406.66584   -406.41523    52.078784 
   46000    348.75001   -406.63611   -406.32055   -45.154373 
   46100    436.40938   -406.64331   -406.24844    1.8719946 
   46200    359.69891   -406.49008   -406.16461    63.191047 
   46300    329.72426   -406.41024    -406.1119   -78.286286 
   46400    519.37897   -406.67887   -406.20893    34.315835 
   46500    261.81128    -406.6001   -406.36321    27.656907 
   46600    278.62652   -406.67916   -406.42706   -48.538717 
   46700    365.28505   -406.78435   -406.45383    52.684415 
   46800    80.882657   -406.54064   -406.46745   -38.863063 
   46900    217.96279   -406.65251    -406.4553    37.004729 
   47000     377.8005   -406.74741   -406.40557   -22.153444 
   47100    245.94819   -406.54022   -406.31768   -16.357613 
   47200    378.21759   -406.57909   -406.23687    51.582122 
   47300    367.62994   -406.48496   -406.15232   -57.272603 
   47400    579.57161   -406.63113   -406.10672    13.631318 
   47500    493.45027   -406.57587   -406.12939     43.74195 
   47600    172.84979   -406.46271   -406.30631   -55.158233 
   47700    419.17826   -406.76478    -406.3855    35.888094 
   47800    246.61017   -406.65688   -406.43374   -15.548953 
   47900    325.05933   -406.79232    -406.4982   -6.7130612 
   48000    272.72844   -406.72277     -406.476    11.464603 
   48100    211.00481    -406.6012   -406.41028   -13.665386 
   48200    295.17589   -406.64981   -406.38273    22.122995 
   48300    270.33388   -406.56924   -406.32463   -23.081326 
   48400    522.76091   -406.68277   -406.20977    8.2580114 
   48500    266.92251   -406.39249   -406.15097    21.748526 
   48600    415.34924   -406.53022    -406.1544   -34.873968 
   48700    260.84434   -406.51944   -406.28343    35.013574 
   48800    366.97213   -406.73349   -406.40145   -24.460446 
   48900    200.25613   -406.68247   -406.50128    6.8901239 
   49000    297.78758   -406.70699   -406.43754    3.3677223 
   49100    239.27385   -406.66188   -406.44538   -16.750824 
   49200    311.37811   -406.67619   -406.39445    8.7751196 
   49300    291.42414   -406.59368      -406.33    4.7961874 
   49400    470.96954   -406.65208   -406.22593   -14.452827 
   49500    235.79985   -406.41425    -406.2009    7.3240279 
   49600    610.85209    -406.7765   -406.22379   -12.385754 
   49700    171.32503   -406.51008   -406.35506    11.098005 
   49800    345.82906   -406.77703   -406.46412    -8.975834 
   49900    301.52344   -406.72772    -406.4549  -0.14444851 
   50000    243.14985   -406.69858   -406.47857    8.6536364 
   50100    220.94634   -406.63729   -406.43737   -6.4651165 
   50200    375.42219   -406.77072   -406.43103    1.7367097 
   50300    316.74039   -406.62483   -406.33824   -4.5284786 
   50400    307.70256   -406.54505   -406.26664    12.694315 
   50500    700.34843   -406.72241   -406.08872   -10.501365 
   50600    313.80527   -406.41892   -406.13498   -3.1932895 
   50700    521.99547   -406.70881   -406.23649    6.5015218 
   50800    262.59927   -406.54478   -406.30717   -3.3268119 
   50900     367.3812   -406.66492    -406.3325   -19.556062 
   51000    227.11396   -406.54795   -406.34245    31.340822 
   51100    280.63102   -406.63273   -406.37881   -20.816103 
   51200     312.5743   -406.61223    -406.3294    7.1733958 
   51300    318.44547   -406.67232   -406.38418    1.1706052 
   51400    421.18536   -406.75791   -406.37681  -0.30301156 
   51500    159.96774   -406.60044    -406.4557   -5.4269213 
   51600    324.40011   -406.76472   -406.47119    1.7602306 
   51700    196.77302   -406.71782   -406.53977    1.1746709 
   51800    289.24454   -406.76489   -406.50317   -9.0737996 
   51900    250.34922   -406.62564   -406.39912    8.1602491 
   52000    305.34368   -406.42614   -406.14986    17.309776 
   52100     499.5986      -406.58   -406.12796   -17.482246 
   52200    405.47193   -406.58669   -406.21981   -16.755743 
   52300    299.49072   -406.54409    -406.2731    32.270539 
   52400    376.17894   -406.69642   -406.35604   -32.171165 
   52500     323.7919   -406.68096   -406.38798   -3.0252421 
   52600    243.54385   -406.62484   -406.40448    18.370762 
   52700    210.02712   -406.60378   -406.41374   -11.280899 
   52800    308.37987    -406.6854   -406.40638   -4.8278019 
   52900    409.07999   -406.67489   -406.30475    20.844654 
   53000    327.83218   -406.67715   -406.38052   -24.761234 
   53100    282.05161   -406.66835   -406.41314    15.550015 
   53200    329.62109   -406.74013   -406.44188   -5.0462725 
   53300    248.04703   -406.73282   -406.50838   -7.7992054 
   53400    194.06828   -406.74047   -406.56487    12.489412 
   53500    300.44139   -406.83879   -406.56695   -8.1314448 
   53600    209.66965   -406.73296   -406.54325   -5.0366033 
   53700    317.79955   -406.69406   -406.40651    22.662001 
   53800    279.62155   -406.56907   -406.31606   -36.320575 
   53900    578.81118   -406.70575   -406.18203    22.656679 
   54000    268.67505   -406.45308   -406.20998    6.6551736 
   54100    517.00364   -406.73933   -406.27153   -41.876086 
   54200    290.22084   -406.58308   -406.32048    46.347751 
   54300    347.00381   -406.65441   -406.34044   -35.941587 
   54400    156.50345   -406.54187   -406.40026     30.06243 
   54500    361.95779   -406.76697   -406.43946    -12.03507 
   54600    87.672191   -406.46225   -406.38292    3.2714446 
   54700    281.88549   -406.65102   -406.39597    14.848499 
   54800    296.54375   -406.58848   -406.32016   -3.6701844 
   54900    262.46128   -406.55802   -406.32054   -26.057909 
   55000    275.20361   -406.54421    -406.2952    58.594815 
   55100    252.02122   -406.57289   -406.34485   -63.984693 
   55200    233.68614   -406.58782   -406.37638    52.118846 
   55300    326.91027   -406.63063   -406.33483   -17.340772 
   55400    407.35482   -406.69047   -406.32189   -14.733798 
   55500    287.30634   -406.57262   -406.31266    22.911463 
   55600    271.52549   -406.55408   -406.30839   -23.021398 
   55700    384.48786   -406.65224   -406.30434    8.7503837 
   55800      343.674    -406.7552   -406.44423    3.6956123 
   55900    198.99644    -406.6498   -406.46974   -10.528662 
   56000    251.14201   -406.70185   -406.47461    12.065719 
   56100    255.81915   -406.69376   -406.46229    -1.506621 
   56200    297.90948   -406.72913   -406.45957   -12.750164 
   56300    381.75494    -406.6637   -406.31828    29.765102 
   56400    327.45599   -406.46702   -406.17073   -39.860174 
   56500    694.28842   -406.72852   -406.10032     22.59295 
   56600    421.43153   -406.60745   -406.22613   -7.4167339 
   56700    290.24895   -406.53521   -406.27259    8.1899289 
   56800    372.25506   -406.68177   -406.34495   -4.9766428 
   56900    225.36675   -406.57151   -406.36759  -0.89329246 
   57000     316.1213   -406.65254   -406.36651   -9.6516362 
   57100    354.04873   -406.67352   -406.35317    31.051716 
   57200    301.93651   -406.63596   -406.36276   -53.096735 
   57300    202.92404   -406.56455   -406.38094    52.146266 
   57400    379.99164   -406.72387   -406.38005   -23.837178 
   57500    302.95908   -406.70199   -406.42787   -22.517832 
   57600    187.56489   -406.62202    -406.4523    38.069675 
   57700    239.70083   -406.65974   -406.44285    -29.50572 
   57800    186.68611   -406.69945   -406.53054    10.712713 
   57900    289.93317    -406.6979   -406.43556    11.324554 
   58000    140.03615   -406.54697   -406.42026   -21.629317 
   58100    424.42657   -406.72402   -406.33999    11.394944 
   58200    238.20147   -406.41308   -406.19755   -15.443973 
   58300    476.88444   -406.67048   -406.23899    7.6841823 
   58400    527.93834   -406.61703   -406.13934    14.644245 
   58500    414.46767   -406.58909   -406.21407   -46.166541 
   58600    226.03029   -406.58959   -406.38507    57.814004 
   58700    212.69998   -406.66141   -406.46895    -44.16273 
   58800    211.99614   -406.66881   -406.47699    26.108385 
   58900    194.41919   -406.63664   -406.46072    15.064716 
   59000     171.1017    -406.5252   -406.37038   -18.842276 
   59100    315.09132   -406.58497   -406.29987    5.5901227 
   59200    425.70382   -406.52059    -406.1354    30.064005 
   59300    317.03329   -406.45467   -406.16782   -52.883725 
   59400    625.55097    -406.7787   -406.21269    52.712445 
   59500    307.73185   -406.65324   -406.37479   -47.574543 
   59600    283.07334    -406.6472   -406.39107    23.651715 
   59700    333.31184   -406.71217   -406.41059   -5.8888452 
   59800    275.98007   -406.70349   -406.45377   -17.912024 
   59900    283.99986   -406.69551   -406.43854    9.8643846 
   60000    386.37156   -406.72041   -406.37081   -5.1512309 
   60100    468.26742   -406.79811   -406.37441   -2.0969713 
   60200    205.44501    -406.5408   -406.35491   -15.022364 
   60300    523.24312   -406.72392   -406.25048    40.680078 
   60400    450.45158   -406.59998    -406.1924   -52.831978 
   60500    401.91214   -406.55541   -406.19175    41.712386 
   60600    401.48671   -406.63404   -406.27076    -3.550641 
   60700    320.07374   -406.68545   -406.39584   -13.104684 
   60800    248.88919   -406.66475   -406.43955    11.360861 
   60900     244.0061   -406.69521   -406.47443    20.043228 
   61000     266.0548   -406.68656   -406.44583   -33.561706 
   61100    247.03841   -406.66625   -406.44272     43.33994 
   61200    176.33111   -406.58644   -406.42689   -31.992798 
   61300     337.1318   -406.63978   -406.33474    9.0742413 
   61400    329.84629   -406.52959   -406.23113    20.956032 
   61500    511.93598   -406.55854   -406.09533   -40.099115 
   61600    581.63191   -406.60757   -406.08129    25.567259 
   61700    330.24281   -406.41855   -406.11974   -11.633366 
   61800    475.97867   -406.71404   -406.28336    2.0317374 
   61900    318.56349   -406.68351   -406.39526    2.9603435 
   62000    264.65011   -406.70507   -406.46561   -10.644632 
   62100    279.44374   -406.72173   -406.46889    12.547685 
   62200    240.99753   -406.65396    -406.4359   -2.2326345 
   62300    275.02188    -406.6953   -406.44646   -30.911742 
   62400    245.00067   -406.61416   -406.39248    47.126241 
   62500    316.27576   -406.57505   -406.28888   -45.784522 
   62600    403.93758   -406.52504   -406.15955    24.620003 
   62700    448.73958   -406.57035   -406.16432     13.22819 
   62800    395.77511   -406.58309   -406.22498   -15.767711 
   62900     323.6005   -406.70107   -406.40827   -14.178153 
   63000    199.87228   -406.64778   -406.46693    40.498311 
   63100    167.74109   -406.62562   -406.47385   -51.115794 
   63200    228.43461   -406.69677   -406.49008     32.37497 
   63300    181.96033   -406.56879   -406.40415    4.8943681 
   63400    339.44058   -406.67924    -406.3721   -25.237623 
   63500    376.22586   -406.57708   -406.23666    7.5585266 
   63600    325.98635   -406.48965    -406.1947    35.988417 
   63700    428.50185   -406.60519   -406.21747    -38.37391 
   63800    403.78321   -406.62212   -406.25676    7.5915859 
   63900    296.03889   -406.70204   -406.43418    6.1856285 
   64000    242.80478   -406.67233   -406.45264   -17.991769 
   64100    297.82849   -406.78686   -406.51737    6.0192296 
   64200    281.48309   -406.74477   -406.49008   -1.9921054 
   64300    413.47282   -406.79503   -406.42091    -4.234912 
   64400    261.37149   -406.59749   -406.36099    8.5959976 
   64500    296.20576   -406.57585   -406.30784    -12.18352 
   64600    418.46273   -406.64862   -406.26999    16.300568 
   64700    364.31935   -406.49159   -406.16195    3.3058315 
   64800    499.63811   -406.60242   -406.15034   -41.909968 
   64900    291.82722   -406.49379   -406.22973    55.124193 
   65000    307.52002   -406.66602   -406.38776   -36.829601 
   65100    188.90202   -406.60769   -406.43677     16.71392 
   65200    290.01776   -406.74371   -406.48129    4.2353403 
   65300     192.4714    -406.6227   -406.44855   -20.421614 
   65400    304.77254   -406.66375   -406.38798     19.18754 
   65500    295.92394   -406.58476     -406.317    -15.07551 
   65600    228.38198    -406.5063   -406.29966    6.2621317 
   65700    630.58493   -406.75819   -406.18763    28.730884 
   65800    94.761704   -406.29391   -406.20817   -39.990267 
   65900    487.10176   -406.72802   -406.28728    41.272599 
   66000     181.9362   -406.65184   -406.48722   -25.001339 
   66100    228.02102   -406.71567   -406.50936   -2.8852436 
   66200    281.00528   -406.75104   -406.49678     18.45067 
   66300    249.82716   -406.69451   -406.46846   -38.950947 
   66400    181.59718   -406.60658   -406.44227     44.64823 
   66500    422.35909   -406.76042   -406.37826   -17.578731 
   66600    329.54789   -406.58283   -406.28465   -25.509583 
   66700    415.14573   -406.59794   -406.22231    54.103994 
   66800    364.45848   -406.46724   -406.13747   -44.553157 
   66900    428.77826   -406.64654   -406.25857    4.3066032 
   67000    417.32768   -406.79081    -406.4132    19.063851 
   67100    108.48994   -406.58681   -406.48865   -44.331838 
   67200    267.03487   -406.68371   -406.44209    48.026818 
   67300    121.64722   -406.56719   -406.45712   -35.910036 
   67400    221.84942   -406.59408   -406.39335    21.195177 
   67500    349.48329   -406.63591   -406.31969    14.204411 
   67600    211.31547   -406.46376   -406.27256   -34.539435 
   67700    417.49037   -406.59828   -406.22053    36.674614 
   67800    449.75976   -406.59685   -406.18989   -7.8210897 
   67900    298.00298   -406.55224    -406.2826   -45.431352 
   68000    289.37419   -406.63864   -406.37681    56.569162 
   68100    222.68579   -406.68129    -406.4798   -44.462797 
   68200     292.0924   -406.71297   -406.44868    26.578205 
   68300    222.68709   -406.66744   -406.46595   -6.0241015 
   68400    213.57464   -406.58049   -406.38724   -2.8555513 
   68500    342.67086    -406.6888   -406.37874    33.863154 
   68600    364.38022   -406.62315   -406.29345   -35.026963 
   68700    444.41874   -406.71521   -406.31309    23.826986 
   68800    323.59595   -406.55928   -406.26648    13.530122 
   68900    247.55249   -406.60434   -406.38034   -51.116311 
   69000    281.37711   -406.70861   -406.45401    50.183599 
   69100    189.35484   -406.71127   -406.53994   -48.196488 
   69200    178.22643   -406.69998   -406.53872    25.200735 
   69300    180.06254   -406.64047   -406.47754    10.222673 
   69400    195.85272    -406.6568   -406.47959   -36.637606 
   69500     234.3467   -406.60247   -406.39043    56.277188 
   69600    319.27558   -406.61277   -406.32388   -37.779219 
   69700     400.5178   -406.63988   -406.27748   -5.1233253 
   69800    527.36153   -406.70593   -406.22876    14.822271 
   69900    270.97163   -406.55245   -406.30727   -31.378868 
   70000    412.86353   -406.71811   -406.34454    11.673179 
   70100    214.85232   -406.56913   -406.37472    15.264125 
   70200    337.27413   -406.71985   -406.41468    -22.04763 
   70300    178.88736   -406.60094   -406.43908    42.486957 
   70400    261.66342   -406.70878   -406.47202   -30.311529 
   70500     304.3523   -406.70191   -406.42653    8.6566292 
   70600    374.66619   -406.74261    -406.4036    1.6900231 
   70700    437.38747   -406.71926    -406.3235   -22.172393 
   70800    470.65688   -406.59959   -406.17373     3.409786 
   70900    390.00395    -406.3461   -405.99322   -6.8745761 
   71000    678.76059   -406.64259   -406.02843     15.52073 
   71100     444.9117   -406.56035   -406.15779   -23.083208 
   71200    323.94791     -406.564   -406.27088   -13.270164 
   71300     220.9855   -406.56899   -406.36904    39.483662 
   71400    199.60736   -406.53061      -406.35   -21.908705 
   71500    373.88182   -406.75801   -406.41972   0.44083401 
   71600    244.62861   -406.63735     -406.416   -2.5561713 
   71700    309.43268   -406.73052   -406.45054    9.1838689 
   71800    376.24012   -406.77745   -406.43702   -11.765144 
   71900    331.14395   -406.56583   -406.26621    -16.61224 
   72000    258.71981   -406.44531   -406.21121    51.688283 
   72100    626.01849   -406.63189   -406.06546   -20.146433 
   72200    401.99434    -406.5018   -406.13806    -47.39802 
   72300    386.86253    -406.6021   -406.25206    55.760308 
   72400    376.32779   -406.61864   -406.27813   -15.885104 
   72500    422.46053   -406.72077   -406.33852   -37.159384 
   72600    276.88947   -406.57393   -406.32339    36.266438 
   72700    254.51878   -406.60545   -406.37516   -2.5809996 
   72800    415.59787   -406.76439   -406.38835   -17.824481 
   72900    248.05061   -406.62299   -406.39855    3.3698942 
   73000    263.92393   -406.68277   -406.44396    12.999503 
   73100    210.60725   -406.65139   -406.46083   -8.1669468 
   73200     206.7619   -406.67595   -406.48887   -8.8632638 
   73300    204.69333   -406.73074   -406.54553    20.228266 
   73400    183.24109   -406.66181   -406.49601   -19.424116 
   73500    321.12505   -406.67793   -406.38737   0.45228081 
   73600     277.8741   -406.56235   -406.31092    4.0804029 
   73700    373.97645    -406.5998   -406.26142    13.811583 
   73800    456.16091   -406.66092   -406.24817   -19.633086 
   73900    394.91764   -406.61855   -406.26122    7.7570463 
   74000    327.09081   -406.68987   -406.39391    25.330774 
   74100    257.47859     -406.697   -406.46402   -44.417003 
   74200    238.98479    -406.7647   -406.54846     27.32596 
   74300    285.62583   -406.78742   -406.52898   0.52464058 
   74400    244.13598   -406.64629   -406.42539   -27.275977 
   74500    337.71727   -406.73511   -406.42954    37.098101 
   74600     154.9348   -406.49582   -406.35563   -32.373304 
   74700    337.12056   -406.57675   -406.27172    19.986687 
   74800    474.75863   -406.65196   -406.22239    24.115097 
   74900    281.10598   -406.48477   -406.23042   -65.659896 
   75000    433.46898   -406.64794   -406.25573     75.37727 
   75100    341.96591   -406.62619   -406.31677   -55.525128 
   75200    401.32906   -406.75587   -406.39274  0.024747227 
   75300    143.72669   -406.63604     -406.506    40.374824 
   75400    64.460988   -406.60413   -406.54581   -37.681647 
   75500    277.05352   -406.79659    -406.5459    29.506468 
   75600    111.05772   -406.63459   -406.53411   -9.1977121 
   75700    306.62578   -406.72642   -406.44898   -9.1262083 
   75800    466.64291   -406.78777   -406.36554     21.68434 
   75900    172.17579   -406.42694   -406.27115   -51.333905 
   76000    401.66685   -406.58391   -406.22047    71.998194 
   76100    459.15556    -406.6314   -406.21595   -33.960464 
   76200    349.14855   -406.58187   -406.26595   -35.137573 
   76300    106.47561   -406.42492   -406.32858    62.201698 
   76400    293.43525    -406.6595   -406.39399    -29.43107 
   76500    299.35645   -406.74636    -406.4755   -27.441585 
   76600    202.59759   -406.64882    -406.4655    64.855298 
   76700    214.61704    -406.6268   -406.43261   -59.236221 
   76800    400.36551   -406.77416   -406.41191    19.439413 
   76900    260.65868   -406.63823   -406.40238    15.304134 
   77000    179.93293   -406.53913   -406.37632   -17.887929 
   77100    417.17128   -406.69471   -406.31724    26.739388 
   77200    88.910817   -406.39927   -406.31882   -42.728816 
   77300    296.21674   -406.58972    -406.3217     49.84999 
   77400    426.28082    -406.6949   -406.30919   -16.975717 
   77500    271.04521   -406.58674   -406.34149   -49.425268 
   77600    123.45809   -406.57634   -406.46463    76.773324 
   77700    153.27557   -406.70655   -406.56786   -52.399567 
   77800     237.4481   -406.75363   -406.53879    11.008456 
   77900    241.91777   -406.69242   -406.47353    19.114433 
   78000    196.26214   -406.64555   -406.46796   -43.493592 
   78100    384.54536   -406.70148   -406.35354    50.409696 
   78200    265.58287   -406.55054   -406.31024   -37.811129 
   78300    527.60558    -406.6783   -406.20091     7.352752 
   78400    542.58131   -406.72646   -406.23552    28.867049 
   78500    201.00193   -406.48893   -406.30706   -59.343665 
   78600    288.11708   -406.53504   -406.27435    72.801486 
   78700    277.85652   -406.65924   -406.40783    -40.77308 
   78800    343.61592   -406.69786   -406.38695   -10.603282 
   78900    256.64879   -406.66171   -406.42949    53.630489 
   79000    199.54239   -406.56471   -406.38416   -72.236149 
   79100    278.73048   -406.63308   -406.38088    50.879466 
   79200    375.73452   -406.68079   -406.34082    -3.783438 
   79300    238.15846    -406.5497   -406.33421   -33.145269 
   79400    469.04304   -406.76901   -406.34461    44.505564 
   79500    89.035375    -406.3931   -406.31254   -33.293818 
   79600     400.9969   -406.69203    -406.3292    19.572642 
   79700    377.04095   -406.68235    -406.3412   -6.3475568 
   79800    262.71911   -406.68624   -406.44852   -25.083506 
   79900    244.36543   -406.69385   -406.47274     45.04728 
   80000    160.01224   -406.65131   -406.50653   -41.226774 
   80100    305.85347    -406.7753   -406.49855    16.375352 
   80200    290.06541   -406.74692   -406.48447    5.0698857 
   80300    259.23987   -406.66067   -406.42611    -29.52997 
   80400    412.99218   -406.65004   -406.27635    34.685893 
   80500    255.70559   -406.43729   -406.20592   -20.551448 
   80600    689.99862   -406.77777   -406.15344   -1.3574236 
   80700    240.79152   -406.41585   -406.19798     2.331312 
   80800    398.23326   -406.65695   -406.29662   -15.980383 
   80900    167.02028   -406.50464   -406.35351    35.677283 
   81000    337.04252   -406.65724   -406.35228   -38.257261 
   81100    361.47777   -406.70959   -406.38252    16.184035 
   81200    247.31375   -406.57296   -406.34918    2.8084957 
   81300    419.78682   -406.73939   -406.35956     -10.4319 
   81400    280.37974   -406.62228   -406.36858    12.386987 
   81500    370.33259   -406.76538    -406.4303   -10.818493 
   81600    375.78364   -406.77121   -406.43119     15.42806 
   81700    284.64102   -406.68344   -406.42589   -15.875336 
   81800    132.55211   -406.66396   -406.54403    8.4924641 
   81900    184.40626   -406.77638   -406.60953    3.3955606 
   82000    197.31539   -406.79339   -406.61485   -18.472867 
   82100    161.15822   -406.74307   -406.59725    14.031583 
   82200     200.0588   -406.73193   -406.55091   -19.104654 
   82300    258.89819   -406.68684   -406.45258    26.050698 
   82400    291.65471   -406.62025   -406.35636   -21.389105 
   82500     303.6743   -406.63017    -406.3554    9.0105794 
   82600    274.69888   -406.62215    -406.3736     13.59041 
   82700    399.41307   -406.74198   -406.38059   -26.250537 
   82800    254.36726   -406.64993   -406.41977     27.01828 
   82900    272.40046   -406.62422   -406.37775   -9.8726052 
   83000    276.02715   -406.74585   -406.49609   0.86114401 
   83100    242.81013   -406.78116   -406.56146    4.7305056 
   83200    117.38608   -406.74426   -406.63805    2.7153284 
   83300    214.63626   -406.81308   -406.61887   -6.0204936 
   83400    220.87135   -406.76135    -406.5615    -3.390166 
   83500    186.73167   -406.62922   -406.46026    9.1670152 
   83600     440.8742    -406.7552   -406.35629    11.680642 
   83700    354.40489   -406.69228   -406.37161   -30.522182 
   83800    463.43915   -406.81746   -406.39813    36.802959 
   83900    251.34331   -406.67626   -406.44884   -22.649615 
   84000    302.50363   -406.72942    -406.4557    3.1443812 
   84100    229.89153   -406.70362   -406.49561     13.98979 
   84200    331.01969   -406.70845   -406.40893   -24.998333 
   84300    118.00023   -406.46751   -406.36074    22.122208 
   84400    409.50806    -406.6431   -406.27256   -3.7198143 
   84500    374.51435   -406.53303   -406.19417   -21.325726 
   84600    549.80777   -406.64391   -406.14643     26.34913 
   84700    298.76589   -406.50573    -406.2354   -2.3846649 
   84800    499.27613   -406.72327   -406.27152   -13.395265 
   84900    312.83569   -406.60727   -406.32421   -14.535513 
   85000    232.57984   -406.56159   -406.35115    32.377743 
   85100    273.10418    -406.7057   -406.45859   -21.527389 
   85200    285.63984   -406.67585   -406.41739   -7.6917045 
   85300    326.98358    -406.7215   -406.42564    18.064377 
   85400    175.27501   -406.56009    -406.4015   -21.329909 
   85500    225.46377   -406.52744   -406.32343    16.459047 
   85600    504.47052    -406.6092   -406.15275    9.2959731 
   85700    373.32533   -406.38385   -406.04606   -41.635378 
   85800    481.93393    -406.4258   -405.98974    37.328613 
   85900    454.58873   -406.56662    -406.1553   -2.6384345 
   86000    325.21067   -406.60267   -406.30841   -28.327567 
   86100    269.71895   -406.68225   -406.43821    36.786818 
   86200    281.03919   -406.60774   -406.35345   -23.759774 
   86300    378.90566   -406.74915   -406.40631   -2.2305691 
   86400    344.93418   -406.72032   -406.40821    15.531501 
   86500    240.17463   -406.54531   -406.32799   -33.033007 
   86600    230.85975    -406.6376   -406.42871    31.060897 
   86700     292.2343   -406.71649   -406.45207   -5.4845473 
   86800    385.49783   -406.67148   -406.32268   -25.976591 
   86900     355.6398    -406.6758   -406.35401    14.678526 
   87000    246.07223   -406.48482   -406.26217    13.754648 
   87100    601.43857   -406.78126   -406.23707   -14.017553 
   87200    447.36313    -406.6514   -406.24662   -21.725971 
   87300    196.08498    -406.5018   -406.32437    42.378872 
   87400    309.81613   -406.69881   -406.41848   -9.2891516 
   87500    307.61019   -406.73098   -406.45265   -25.744833 
   87600    243.82828   -406.62225   -406.40163    46.796123 
   87700    196.01288   -406.61031   -406.43296    -29.58566 
   87800    449.31402    -406.8052   -406.39866    4.8348477 
   87900    219.23558   -406.58436   -406.38599   -8.5935275 
   88000    288.84027   -406.52233   -406.26098    18.754955 
   88100    677.03325   -406.71982   -406.10723    4.6178584 
   88200    429.80508   -406.31732   -405.92842   -52.440601 
   88300    272.31018   -406.24354   -405.99714    45.679846 
   88400    593.43829   -406.71175    -406.1748    16.856055 
   88500    195.30161   -406.44881   -406.27209   -62.172566 
   88600    333.13241   -406.64833    -406.3469    64.043862 
   88700    272.80657   -406.62002   -406.37317   -28.821674 
   88800    378.20676    -406.7012   -406.35899   -7.3033639 
   88900    267.64518   -406.63232   -406.39015    8.3284246 
   89000    310.11669   -406.67802   -406.39742     7.171922 
   89100    277.89994   -406.71109   -406.45964    -4.889704 
   89200    262.12628   -406.71572   -406.47854   -2.1387352 
   89300    107.58995    -406.5621   -406.46475   -1.0851545 
   89400    323.18227   -406.75732   -406.46489    20.476274 
   89500    229.63725   -406.63326   -406.42548   -46.037071 
   89600    195.53067   -406.47815   -406.30123    52.844314 
   89700    323.48242   -406.48141   -406.18872     2.935996 
   89800     564.4183   -406.66417   -406.15347   -30.399256 
   89900    604.76923   -406.73489   -406.18768   -21.901988 
   90000    376.40398   -406.58428   -406.24371    26.086446 
   90100    223.66498   -406.50169   -406.29931  -0.17187815 
   90200    372.82957   -406.72175    -406.3844     9.049096 
   90300     343.2715   -406.72408   -406.41348   -34.327632 
   90400     319.3856   -406.66299     -406.374    10.941973 
   90500    187.47646   -406.58036   -406.41073    19.640571 
   90600    329.94273   -406.66351   -406.36497   -9.6648904 
   90700    333.45942   -406.65723   -406.35551   -19.542672 
   90800    320.75922   -406.64337   -406.35314     13.52902 
   90900    294.50555   -406.52829   -406.26181    21.263344 
   91000    536.67689   -406.62541   -406.13982    -18.82583 
   91100    614.13746   -406.61452   -406.05883   -27.069405 
   91200    426.78155   -406.54588   -406.15972    15.091756 
   91300    241.38809   -406.55018   -406.33177    19.150104 
   91400    354.84337   -406.77195   -406.45088    -20.18262 
   91500    264.86547   -406.70858   -406.46893    1.8972147 
   91600    150.98151   -406.58027   -406.44366    11.001951 
   91700    290.53955    -406.7286   -406.46571    3.0447145 
   91800    312.61925   -406.68047   -406.39761   -22.441878 
   91900    289.48347   -406.58045   -406.31852    9.6598158 
   92000    264.03172   -406.41102   -406.17212    7.3327416 
   92100    625.84341   -406.68921   -406.12294    17.150015 
   92200    359.70561   -406.44324   -406.11778   -52.298684 
   92300    311.61437   -406.50475    -406.2228    19.929909 
   92400    188.74936   -406.55395   -406.38317    23.894115 
   92500    266.96465      -406.69   -406.44845   -10.509345 
   92600    273.97725   -406.69513   -406.44723   -32.721967 
   92700    248.74465   -406.65517    -406.4301    63.136801 
   92800    265.43346   -406.61465   -406.37448   -56.894386 
   92900    521.21852   -406.74996   -406.27835    2.9189702 
   93000    255.50668   -406.50824   -406.27706    30.043118 
   93100    271.15579   -406.46216   -406.21682   -17.567617 
   93200    497.11752   -406.58074   -406.13093    -11.04359 
   93300    400.91899   -406.54553   -406.18277    16.750829 
   93400    187.46137     -406.458   -406.28838   -7.1317521 
   93500    334.28556   -406.73945   -406.43698    29.582994 
   93600    300.69463   -406.74269   -406.47062   -45.199318 
   93700    235.06814   -406.66254   -406.44985     26.83948 
   93800    254.84133   -406.68878   -406.45819    3.8888989 
   93900    218.19976   -406.62038   -406.42295   -10.784999 
   94000     365.8591   -406.66153   -406.33049   -13.908703 
   94100    130.64176   -406.38245   -406.26424    38.227991 
   94200     524.5342    -406.5594   -406.08479   -18.410862 
   94300    547.85062   -406.55872   -406.06301   -3.1034471 
   94400    461.69606   -406.66592   -406.24817   -18.017821 
   94500    339.73089    -406.7618   -406.45441    17.788211 
   94600    364.01045    -406.8092   -406.47984    -26.32047 
   94700    273.37885    -406.6836   -406.43624    9.9894807 
   94800    361.50211   -406.74187   -406.41478   -6.7217927 
   94900    251.40044    -406.6009   -406.37342   -8.6174609 
   95000    449.30028     -406.724   -406.31747    11.640285 
   95100    254.34414   -406.47596   -406.24583   -12.873856 
   95200    378.36434   -406.53806   -406.19571   -2.1661366 
   95300    291.83254    -406.4745   -406.21044    36.073426 
   95400    238.87864     -406.497   -406.28086    -20.06203 
   95500    291.09734   -406.69048   -406.42709   -14.405276 
   95600    173.92774   -406.61403   -406.45666    37.166671 
   95700    228.42945   -406.72595   -406.51926   -29.588439 
   95800    251.34157   -406.68229   -406.45487    18.390925 
   95900    301.95797   -406.69311   -406.41989    -5.264441 
   96000    335.21314   -406.76814   -406.46483   -16.590152 
   96100    383.27117   -406.78655   -406.43976    16.218764 
   96200    427.40487    -406.6896   -406.30288   -7.1687399 
   96300    524.60378   -406.58984   -406.11517   -33.716183 
   96400    396.97579   -406.45284   -406.09365    57.298844 
   96500    411.72585   -406.31715   -405.94461   -35.691025 
   96600    391.21538   -406.34309   -405.98911    21.005385 
   96700    167.13282    -406.4483   -406.29708   -18.403938 
   96800    238.03485   -406.58727   -406.37189     57.30715 
   96900    184.79185   -406.57465   -406.40744   -62.661523 
   97000     325.3445   -406.62916   -406.33478    37.528936 
   97100    275.80799   -406.58571   -406.33615    -11.44613 
   97200    337.70446   -406.71627    -406.4107   -12.163253 
   97300    305.83199   -406.59942    -406.3227    14.673176 
   97400    309.51119   -406.59227   -406.31221   -3.0235786 
   97500    457.59632   -406.64105     -406.227   -6.9832084 
   97600     414.2535   -406.65937   -406.28455    2.2735344 
   97700    319.16874   -406.56868   -406.27988   -15.286453 
   97800    396.68448   -406.61657   -406.25764    24.294646 
   97900    262.48788   -406.61992   -406.38242   -25.911689 
   98000    298.31551    -406.7026   -406.43268    5.8926335 
   98100    158.92523   -406.59626   -406.45246    18.720638 
   98200    146.42483   -406.58315   -406.45067   -36.845092 
   98300    380.34711   -406.74226   -406.39811    54.865825 
   98400    188.44985   -406.48613   -406.31562   -47.503716 
   98500    433.63332    -406.6354   -406.24304    33.183594 
   98600    490.85899   -406.50637   -406.06223   -9.4303805 
   98700    361.98295   -406.44822   -406.12069   -7.7205844 
   98800    593.44009   -406.68598   -406.14902   0.26696596 
   98900    222.22047   -406.48404   -406.28297    7.3611952 
   99000    282.26169   -406.50127   -406.24588   -5.3126328 
   99100    296.87529   -406.61087   -406.34225     19.15949 
   99200    346.62971   -406.59973   -406.28609   -32.701109 
   99300    185.16743   -406.54103   -406.37348    37.918709 
   99400    322.48035   -406.66062   -406.36883   -28.383569 
   99500    237.42933   -406.64095   -406.42612    8.3839482 
   99600     250.7773   -406.64015   -406.41324    15.405795 
   99700    292.98753   -406.60307   -406.33797   -33.496828 
   99800    225.33414   -406.51603   -406.31215    43.115732 
   99900    520.09894   -406.60509   -406.13449   -27.068712 
  100000    457.24453   -406.58555   -406.17183     8.987228 
  100100    383.98494   -406.64057   -406.29313    16.931428 
  100200    279.66422   -406.67935    -406.4263   -27.093995 
  100300    296.78577   -406.72651   -406.45797    6.0251835 
  100400    209.80422   -406.62367   -406.43384    8.0505463 
  100500    372.18728   -406.78066   -406.44389   -13.432338 
  100600      369.274    -406.7787   -406.44458    10.128541 
  100700    331.04241   -406.67801   -406.37848   -11.634432 
  100800    478.39278    -406.7606   -406.32774     12.22937 
  100900    379.10634   -406.69091   -406.34789   -21.307106 
  101000     280.2694   -406.70083   -406.44724    16.732099 
  101100    286.56053    -406.7104   -406.45112    7.0538133 
  101200    126.21479   -406.65027   -406.53607   -24.086216 
  101300    260.24961    -406.7796   -406.54412     22.65771 
  101400    106.00122    -406.6123   -406.51639  -0.17335691 
  101500    274.21376   -406.71239   -406.46427   -19.218232 
  101600    162.57304   -406.54017   -406.39307    26.319632 
  101700    213.70928   -406.52072   -406.32735    -9.571189 
  101800    392.86777   -406.65925   -406.30377    7.4767696 
  101900    309.49864   -406.53873   -406.25869   -13.750414 
  102000    304.18189   -406.56384   -406.28861    14.758908 
  102100    325.87959   -406.70104   -406.40617   -7.0871478 
  102200    314.82051   -406.68211   -406.39725   -11.788841 
  102300    214.90064    -406.6409   -406.44646    13.606578 
  102400     272.2159   -406.65521    -406.4089   0.79741361 
  102500    218.99725   -406.66883   -406.47068   -11.293232 
  102600     226.7559   -406.71443   -406.50926    15.831706 
  102700    280.75106    -406.8093   -406.55527   -15.420655 
  102800    176.56167   -406.72447   -406.56471   0.50974594 
  102900    208.23773   -406.70946   -406.52104    5.2136389 
  103000    269.42943   -406.70397   -406.46019   -7.6256662 
  103100    206.98316   -406.51844   -406.33116   -6.4334891 
  103200    379.34336   -406.64833    -406.3051    22.538821 
  103300    359.78635   -406.57628   -406.25074   -26.855109 
  103400    327.97805   -406.52974   -406.23298    4.4457017 
  103500    289.83846   -406.49186   -406.22961    28.645335 
  103600    282.36908    -406.5418   -406.28631   -39.695554 
  103700    342.71277   -406.73371   -406.42361    26.604355 
  103800     210.6633   -406.62892   -406.43831    -2.588607 
  103900    238.62875   -406.75888   -406.54296   -16.703695 
  104000    278.47902   -406.80075   -406.54878     22.24431 
  104100    142.83027   -406.65392   -406.52468   -20.675542 
  104200    262.23618   -406.76379   -406.52651    20.591664 
  104300    214.03856   -406.64924   -406.45558   -6.4190795 
  104400    277.33233   -406.70754   -406.45661   -15.887056 
  104500    274.59865    -406.6361   -406.38764    25.428269 
  104600    195.80402    -406.5221   -406.34493   -33.693118 
  104700     390.4231   -406.59887   -406.24561    18.859857 
  104800    381.40587   -406.63564   -406.29053    27.860183 
  104900    295.82149    -406.5693   -406.30164   -46.522272 
  105000    318.83852   -406.70468   -406.41618    34.317841 
  105100    177.43306   -406.72517   -406.56462   -12.071324 
  105200    224.29972   -406.74632   -406.54337   -5.5080509 
  105300    257.25757   -406.72434   -406.49157    18.463969 
  105400    189.41435   -406.61763   -406.44624   -35.631582 
  105500    331.10926   -406.76733   -406.46774    38.424218 
  105600    229.02775    -406.5726   -406.36538    -21.06666 
  105700    462.86995   -406.75325   -406.33443    4.7975457 
  105800    507.63607   -406.72324   -406.26392   -1.7744935 
  105900    164.37594   -406.52798   -406.37925   -13.980698 
  106000    469.52338   -406.85224    -406.4274    21.980522 
  106100    198.37941   -406.66214   -406.48264   -24.337889 
  106200    238.80001   -406.79174   -406.57567    13.530911 
  106300    202.30324   -406.74642   -406.56337   -8.3333219 
  106400    178.87899   -406.69214   -406.53029   -7.9119818 
  106500    300.80183   -406.74085   -406.46868    20.161675 
  106600    271.89709   -406.63966   -406.39364   -10.458199 
  106700     333.6375   -406.63703   -406.33515   -20.071872 
  106800    309.39515   -406.56871   -406.28876    50.749934 
  106900     364.6677   -406.64141   -406.31145   -55.388801 
  107000    355.76797   -406.63135   -406.30944    27.731756 
  107100    285.14068    -406.6283    -406.3703    -6.209148 
  107200    134.23781   -406.57976    -406.4583   -1.4914606 
  107300     274.7389   -406.78669    -406.5381    5.6773333 
  107400    127.92082   -406.66593   -406.55018   -12.705644 
  107500    218.68744   -406.76949   -406.57162    21.493624 
  107600    257.84931   -406.68924   -406.45593   -11.728116 
  107700    245.94898   -406.69324    -406.4707   -9.1273258 
  107800    338.62453   -406.73763   -406.43123    25.610759 
  107900    242.41171   -406.60509   -406.38575   -35.952413 
  108000    380.25245   -406.68253   -406.33847    48.103846 
  108100    323.06219   -406.66133   -406.36901   -41.390963 
  108200    292.44813   -406.64473   -406.38012    6.4650864 
  108300    158.92625   -406.64741   -406.50361    22.192095 
  108400    193.59932   -406.74957    -406.5744   -21.235744 
  108500    116.47923   -406.75839     -406.653  -0.34460709 
  108600    250.95302   -406.76761   -406.54054    15.209827 
  108700    210.85895     -406.706   -406.51521   -33.502724 
  108800    394.77678   -406.81278   -406.45558    29.261382 
  108900    310.81428   -406.67328   -406.39205   -25.285413 
  109000    414.95225   -406.70856    -406.3331    24.053504 
  109100    460.07488   -406.72219   -406.30591   -23.340428 
  109200    298.25041   -406.61772   -406.34786   -10.554875 
  109300     419.7198   -406.76292   -406.38315    52.268961 
  109400    190.50427   -406.52903   -406.35666    -66.86357 
  109500    335.96575   -406.69335   -406.38936    38.937496 
  109600    244.40647   -406.65735    -406.4362    6.4173793 
  109700    280.14162   -406.74462   -406.49114    -35.77901 
  109800    215.12111   -406.71275    -406.5181    23.886857 
  109900    145.28329   -406.66994   -406.53849   -2.2737681 
  110000    260.16798   -406.77008   -406.53467   -10.216347 
  110100    242.50908   -406.70791   -406.48849   -2.2727082 
  110200    155.39371    -406.5489   -406.40829    18.575815 
  110300    533.46071   -406.79265   -406.30996   -4.3319086 
  110400    236.10801   -406.47274    -406.2591   -53.558579 
  110500     329.4382   -406.51954   -406.22146    68.185254 
  110600    250.26763   -406.48932   -406.26287   -13.401955 
  110700    466.42525   -406.74962   -406.32759   -30.188725 
  110800    221.38707   -406.57818   -406.37786    30.422507 
  110900    177.97864   -406.52828   -406.36724   -6.8081847 
  111000    272.53215   -406.68128   -406.43469   -5.5332333 
  111100     240.5742   -406.75702   -406.53934    9.5281135 
  111200    172.03927   -406.73732   -406.58165   -18.576888 
  111300     121.3501   -406.70453   -406.59473    23.708554 
  111400    110.74442   -406.70269   -406.60248   -30.216722 
  111500    66.002839   -406.68967   -406.62995    36.119265 
  111600    229.49855   -406.73594   -406.52828   -25.138009 
  111700    301.26598   -406.72248   -406.44989    3.1536881 
  111800    357.20925   -406.72628   -406.40307    26.538182 
  111900    288.72014   -406.61992   -406.35868   -30.728849 
  112000    331.09884   -406.62077   -406.32118    1.7360924 
  112100    448.25416   -406.73081   -406.32522    43.078289 
  112200    282.07553   -406.56886   -406.31363   -71.091753 
  112300    354.44983   -406.70142    -406.3807    60.751958 
  112400    271.27998   -406.71185   -406.46639   -16.764846 
  112500     270.0309   -406.70983    -406.4655   -17.456374 
  112600    316.21534   -406.81805   -406.53193    28.236691 
  112700     108.5272    -406.6404   -406.54221   -34.588548 
  112800    216.89805   -406.70847   -406.51222    40.560227 
  112900    353.12407   -406.73582    -406.4163   -33.003326 
  113000    269.48274   -406.56041   -406.31658   -3.0024399 
  113100    410.08228   -406.68383   -406.31278    47.001355 
  113200    205.50248   -406.46436   -406.27842   -57.992046 
  113300    465.91656   -406.73001   -406.30843    27.600009 
  113400    268.82074   -406.59746   -406.35423    16.592205 
  113500     323.8926   -406.69354   -406.40047   -50.442556 
  113600    201.87156   -406.64918   -406.46652    50.111689 
  113700     279.0683   -406.73886   -406.48636   -27.141367 
  113800    203.97604   -406.68793   -406.50337    7.6378708 
  113900     297.8151   -406.82034   -406.55087    6.5329685 
  114000     97.03372   -406.64123   -406.55343   -17.403002 
  114100    187.05053   -406.73489   -406.56564    29.195033 
  114200    223.58762   -406.74532   -406.54301    -24.31881 
  114300    236.40841   -406.69653   -406.48262     5.044529 
  114400    332.39597   -406.68043   -406.37967    27.822758 
  114500    204.84947   -406.46805    -406.2827   -51.213739 
  114600    532.59861   -406.69719   -406.21529    44.162747 
  114700    249.78691   -406.44861    -406.2226   -18.020802 
  114800    420.04155   -406.62567   -406.24561   -2.5208503 
  114900    380.48621   -406.68383   -406.33956    9.5604591 
  115000    322.61236   -406.69903   -406.40712   -18.718851 
  115100     374.0963    -406.8036   -406.46511    9.1033864 
  115200    278.85324   -406.75257   -406.50026   -8.9846602 
  115300    275.79987   -406.74215    -406.4926   -9.4444158 
  115400    240.17706   -406.66902   -406.45171    34.821028 
  115500     321.3786   -406.72241   -406.43162   -46.670057 
  115600     260.9318   -406.63648   -406.40038    23.402509 
  115700    292.92104   -406.59705   -406.33201    17.748249 
  115800    290.25339   -406.56643    -406.3038   -23.024621 
  115900     512.5062   -406.75194   -406.28821   -1.3906959 
  116000    253.42569   -406.45609   -406.22678    19.962394 
  116100    317.57904    -406.5534   -406.26604   -15.686166 
  116200     455.7353   -406.75408   -406.34172    5.1131702 
  116300     187.2247   -406.55369   -406.38429   -23.432222 
  116400    236.65806   -406.65374    -406.4396    34.261246 
  116500    345.29418   -406.80231   -406.48988   -23.385689 
  116600    267.51918   -406.68287   -406.44081   -8.1306208 
  116700    176.95945   -406.61412     -406.454    24.781487 
  116800    322.59227    -406.6693   -406.37741   -11.841267 
  116900     450.9155   -406.65243   -406.24444   -18.150627 
  117000    307.00056   -406.34281   -406.06503    40.813731 
  117100    448.84314   -406.47952    -406.0734   -7.4057322 
  117200    438.08762   -406.52786   -406.13147   -16.628026 
  117300    376.96771   -406.54361   -406.20252    16.093529 
  117400     275.2383   -406.54706   -406.29802    13.052662 
  117500    428.70463   -406.72163   -406.33373   -23.005804 
  117600    394.45655   -406.69972   -406.34281    2.7495612 
  117700    261.01881   -406.58655   -406.35038   -17.554394 
  117800    204.56571    -406.5852    -406.4001    36.763371 
  117900    366.86949   -406.72596   -406.39401   -19.630424 
  118000    326.39569   -406.69785   -406.40252   -24.003661 
  118100    129.91901   -406.52676   -406.40921    38.361336 
  118200    327.04328    -406.7088   -406.41288   -19.231862 
  118300    241.23477   -406.67741   -406.45913   -20.068418 
  118400    188.98725   -406.62854   -406.45754    39.591824 
  118500    220.54926   -406.60394   -406.40438   -37.935207 
  118600    526.20158   -406.84732    -406.3712    4.0233713 
  118700    277.55677   -406.49406   -406.24292     29.22785 
  118800     284.3335   -406.43119   -406.17392    -6.880416 
  118900    490.47285   -406.63419    -406.1904   -9.3847521 
  119000    342.30996   -406.66984   -406.36011    5.6549802 
  119100    202.25408   -406.59195   -406.40895    8.1828313 
  119200    199.81043    -406.6291   -406.44831   -5.8335242 
  119300     343.2276   -406.76476    -406.4542   0.69913702 
  119400    251.57696   -406.64651   -406.41888   -6.0493721 
  119500    295.11942   -406.61675   -406.34972    12.336526 
  119600    302.47807   -406.54282   -406.26913   -23.188535 
  119700    226.85972   -406.47298   -406.26772    27.664087 
  119800    492.48795   -406.65978   -406.21417   -12.184687 
  119900    565.59523   -406.66194   -406.15017   -4.6885324 
  120000    273.43355   -406.40854   -406.16114    10.197378 
  120100    278.12043   -406.53819   -406.28654   -21.527449 
  120200    370.54041   -406.65967    -406.3244    18.853536 
  120300    262.35835   -406.60919   -406.37181   -18.667236 
  120400    209.63451   -406.64493   -406.45525    5.7237898 
  120500    232.28744     -406.591   -406.38082     10.10836 
  120600    304.97162   -406.69029   -406.41435   -23.475921 
  120700    281.42834   -406.66795   -406.41331    22.890805 
  120800    331.73583    -406.6666   -406.36644   -8.8435861 
  120900     350.2805   -406.60308   -406.28614    -12.45676 
  121000    399.39547   -406.48063   -406.11925    21.711608 
  121100    418.49753   -406.47869   -406.10002   -22.183337 
  121200    434.72948   -406.57216    -406.1788    8.2187565 
  121300    272.04215   -406.49883   -406.25268    9.5869596 
  121400    298.05001   -406.69742   -406.42773   -19.010231 
  121500    345.96665   -406.76173   -406.44869    6.0530053 
  121600    231.13104   -406.57327   -406.36414    9.8595262 
  121700    193.31499   -406.57393   -406.39902   -23.118362 
  121800    271.57431   -406.61707   -406.37134     18.62501 
  121900    388.95642   -406.66754    -406.3156    6.3728518 
  122000    397.47706   -406.63021   -406.27057   -35.835167 
  122100    325.93239    -406.4902   -406.19529    49.261802 
  122200    415.47891   -406.51443   -406.13849   -18.976524 
  122300     480.3531   -406.54631   -406.11168   -8.9739253 
  122400    492.84714    -406.6446   -406.19866    24.075803 
  122500    314.09536   -406.64706   -406.36286   -27.355207 
  122600    270.58761   -406.67602   -406.43119     12.47443 
  122700    314.10053   -406.72874   -406.44453   -9.6688689 
  122800    212.87861   -406.62848   -406.43587   0.13518342 
  122900    415.47768   -406.80319   -406.42725    7.5579123 
  123000    213.41602   -406.59442   -406.40132   -27.687204 
  123100    254.84046   -406.58163   -406.35104    42.695691 
  123200    400.32843   -406.60442    -406.2422   -30.738255 
  123300    409.81059   -406.49523   -406.12442   -16.705881 
  123400    574.61085    -406.5946   -406.07468    53.865815 
  123500    305.96342    -406.3937   -406.11686   -51.079146 
  123600    416.59906   -406.65098   -406.27403    11.921905 
  123700    194.47433   -406.56871   -406.39275    15.469684 
  123800    266.50339   -406.65942   -406.41828   -26.441888 
  123900    283.74056   -406.67618   -406.41944    34.478776 
  124000    259.88274   -406.57164    -406.3365   -24.413918 
  124100    348.04475   -406.62197   -406.30706  -0.81935992 
  124200    418.22335   -406.72052    -406.3421    40.212426 
  124300    168.05013   -406.46506     -406.313   -56.174169 
  124400    544.79386   -406.70124    -406.2083    30.022335 
  124500    359.88634   -406.48436   -406.15873    11.683517 
  124600    309.13948   -406.41603   -406.13631   -18.521062 
  124700    518.81319   -406.64221   -406.17277    24.080469 
  124800     269.4528   -406.59437   -406.35057   -27.037332 
  124900    325.39329   -406.71583   -406.42141   -5.8988641 
  125000    216.43908   -406.57012   -406.37428    47.298403 
  125100    247.43123   -406.67773   -406.45384   -56.955662 
  125200    284.71929   -406.63096   -406.37334    41.063656 
  125300     372.3478   -406.76115   -406.42424   -13.307777 
  125400     354.2861   -406.69322   -406.37265   -9.0924387 
  125500    493.06139   -406.72183    -406.2757    12.882789 
  125600    410.07436   -406.59019   -406.21915   -10.676382 
  125700    482.24912   -406.68294   -406.24659   -9.1365608 
  125800     277.1834   -406.60326   -406.35245    23.675129 
  125900    302.37677   -406.75495   -406.48135   -28.671599 
  126000    161.87809   -406.56103   -406.41456    22.851289 
  126100    271.01416   -406.75891   -406.51369   -1.0437954 
[...]
  473400    321.52829   -406.63819   -406.34726    -11.83427 
  473500    287.55562   -406.67385   -406.41367    6.4439826 
  473600    238.18595   -406.62969   -406.41418   -5.1361924 
  473700    310.48584    -406.7082   -406.42727    3.1446799 
  473800    260.85252   -406.71327   -406.47725   -7.7231589 
  473900    328.09944   -406.73018   -406.43331    10.186686 
  474000    299.26445   -406.62582   -406.35504   -20.190097 
  474100    468.28137   -406.59909   -406.17538    12.356451 
  474200    313.00609   -406.39098   -406.10777    1.9685018 
  474300    469.39154   -406.50357   -406.07885   -23.047348 
  474400    378.53996    -406.5353   -406.19279    33.549726 
  474500    273.86309   -406.58023   -406.33243   -41.887571 
  474600    310.21264   -406.65304   -406.37236    40.542883 
  474700    260.72064   -406.65128   -406.41537   -30.524935 
  474800    272.49456   -406.66557   -406.41901    12.183631 
  474900    298.50521   -406.66568   -406.39558    7.5575918 
  475000    214.61442   -406.59267   -406.39848   -4.8437681 
  475100    383.10204   -406.73092   -406.38428   -5.0865627 
  475200    216.43123   -406.53434   -406.33851    24.901001 
  475300    389.90176   -406.63749    -406.2847    -34.53986 
  475400    332.52108   -406.44189   -406.14102     43.75783 
  475500    502.12911   -406.40507   -405.95074   -23.700754 
  475600    438.90347   -406.45142   -406.05429    4.5276279 
  475700    478.23306   -406.60138   -406.16866   -1.9908676 
  475800    289.45495   -406.53982   -406.27792   -10.245624 
  475900     352.1402   -406.66786   -406.34924    10.648506 
  476000    337.21555   -406.66183   -406.35671   -10.523608 
  476100    389.21363   -406.75365   -406.40149   -9.3970658 
  476200    218.74797   -406.58169   -406.38377    9.0834392 
  476300    364.12466   -406.73945   -406.40998    8.4999367 
  476400    271.74926   -406.58554   -406.33965   -25.465458 
  476500    257.44345   -406.51705   -406.28411    31.137779 
  476600    418.86264   -406.61665   -406.23765   -19.980559 
  476700    481.76997   -406.54434   -406.10843     8.311284 
  476800    453.21404   -406.51604   -406.10596   -21.963573 
  476900    364.77249   -406.50616   -406.17611    42.620075 
  477000    321.94283   -406.68718   -406.39588   -40.252325 
  477100    268.57948   -406.69925   -406.45623    21.847099 
  477200    207.01748   -406.67148   -406.48417    -4.424929 
  477300    248.37362   -406.68661   -406.46188   -7.7427836 
  477400    387.03402   -406.79842   -406.44822    3.0554967 
  477500    218.26151    -406.5851   -406.38762   -8.2430112 
  477600    344.64208   -406.63141   -406.31957    20.419802 
  477700    399.08152   -406.61824   -406.25715   -10.523625 
  477800    487.46192   -406.60607   -406.16501   -23.722037 
  477900    435.90158   -406.46561    -406.0712     42.27198 
  478000    472.45622   -406.36438   -405.93689   -14.511986 
  478100    645.23031   -406.58546   -406.00164   -33.682242 
  478200    309.80551   -406.39727   -406.11696    47.152525 
  478300    286.36167   -406.56508   -406.30598   -38.102285 
  478400    272.67174    -406.6437   -406.39698    26.792542 
  478500    253.33294   -406.63672    -406.4075   -20.141841 
  478600    221.33697   -406.62072   -406.42044    11.689402 
  478700    300.37626    -406.7287   -406.45692     2.114421 
  478800    293.47534   -406.71597   -406.45043   -10.231648 
  478900     152.3722    -406.5324   -406.39453   0.84878259 
  479000    395.08181   -406.58903   -406.23155    26.376201 
  479100    289.59678   -406.47158   -406.20954   -36.174045 
  479200    488.13958   -406.51173   -406.07005    33.123117 
  479300    279.73009   -406.36069   -406.10759   -1.2972357 
  479400    373.35309   -406.59387   -406.25605   -9.8286073 
  479500    303.97071   -406.61467   -406.33963    12.796233 
  479600    145.92219   -406.49758   -406.36554   -13.915649 
  479700    373.35197   -406.74711   -406.40929    12.769562 
  479800    172.30257   -406.61414   -406.45824   -18.206493 
  479900    373.23662   -406.71893   -406.38122    8.9701669 
  480000    195.58989    -406.4315   -406.25453   -6.3223568 
  480100     544.0662   -406.76262   -406.27034   -1.9399056 
  480200    246.49932   -406.37394    -406.1509   -4.6619197 
  480300    537.12068   -406.71351   -406.22751     19.62916 
  480400    139.84884   -406.38138   -406.25484   -21.272422 
  480500    251.68617   -406.60272   -406.37499    19.696506 
  480600      248.688    -406.6488   -406.42379   -15.087546 
  480700     172.1585   -406.69039   -406.53462    12.475195 
  480800    203.35469   -406.62786   -406.44386    -5.840165 
  480900    273.20932   -406.59283   -406.34563    13.039807 
  481000    410.37858   -406.71464   -406.34332   -21.957127 
  481100    362.98603   -406.52195   -406.19351    16.907297 
  481200    403.14357   -406.61159   -406.24681   -18.799707 
  481300    363.86578   -406.52918   -406.19995     7.386508 
  481400    401.30471   -406.70724   -406.34413   0.68830219 
  481500    279.84358   -406.59083   -406.33762   -23.511901 
  481600    238.28973   -406.70986   -406.49425    36.204326 
  481700     171.5897   -406.71561   -406.56035   -37.054356 
  481800    154.48473   -406.68695   -406.54716     34.10879 
  481900    193.00913   -406.76765   -406.59301   -25.312716 
  482000    231.20237   -406.73919   -406.52999    19.585503 
  482100    242.19023   -406.58766   -406.36852   -9.7300598 
  482200    264.29357   -406.61508   -406.37594    6.8260846 
  482300    268.59574   -406.55016   -406.30713    17.131135 
  482400    411.38783   -406.59743    -406.2252   -5.8305255 
  482500    326.14563   -406.58211   -406.28701   -18.586601 
  482600    306.76059   -406.60978   -406.33222    42.748962 
  482700    228.93374     -406.615   -406.40786   -46.189657 
  482800    266.14049   -406.66907   -406.42826    29.960842 
  482900    201.52986   -406.65415    -406.4718   -18.861198 
  483000    299.97056   -406.80983   -406.53841    7.6082687 
  483100     262.2277    -406.6982   -406.46093   -8.6126319 
  483200    285.51083   -406.57725   -406.31892   -13.606776 
  483300    473.74344   -406.56851   -406.13986    41.096668 
  483400    433.31219   -406.55424   -406.16217   -64.747789 
  483500    442.90945      -406.55   -406.14925    38.604944 
  483600    329.70367   -406.63879   -406.34047  -0.86879322 
  483700    252.98922   -406.56541    -406.3365   -11.333282 
  483800    260.40127   -406.64037   -406.40475    8.3273658 
  483900    187.42304   -406.53674   -406.36715    9.6979141 
  484000     235.3172    -406.6698   -406.45688   -11.413961 
  484100    271.39907   -406.65007    -406.4045    20.207284 
  484200     149.7679   -406.50651     -406.371   -29.121074 
  484300    497.84011   -406.71627   -406.26581    56.673582 
  484400    298.57326   -406.33428   -406.06413   -69.449509 
  484500    566.97291    -406.5463   -406.03329    37.682994 
  484600    557.33777   -406.62935   -406.12505    2.1778113 
  484700    324.61039   -406.55794   -406.26423   -47.379737 
  484800     372.0317   -406.65068   -406.31406     35.35852 
  484900    332.37206   -406.67744    -406.3767   -18.213594 
  485000    363.77206   -406.70005    -406.3709   -14.105019 
  485100    285.93149   -406.62207   -406.36335     18.06284 
  485200    267.50872   -406.61792   -406.37588   -12.771974 
  485300    363.16513   -406.68282   -406.35422   -6.2328904 
  485400    266.56726   -406.54362   -406.30242    24.397509 
  485500    267.89409   -406.49657   -406.25417   -31.847646 
  485600    331.89185   -406.48677   -406.18647    57.983177 
  485700    308.94733   -406.30456   -406.02502   -55.835452 
  485800    306.28034   -406.33642   -406.05929    61.196265 
  485900    436.45654   -406.57848   -406.18357   -18.991896 
  486000     266.2449   -406.58438   -406.34347   -12.538135 
  486100    283.24344    -406.6378   -406.38151    24.784563 
  486200    245.56183   -406.62043   -406.39824   -26.189451 
  486300     279.8237    -406.6219   -406.36871    15.001293 
  486400    374.41763   -406.67534   -406.33656   -12.568707 
  486500    210.97949   -406.51804   -406.32714    2.3208166 
  486600    410.16424   -406.67874   -406.30761   0.98132181 
  486700    287.04506   -406.38802    -406.1283    2.7210525 
  486800    474.91808    -406.5239   -406.09419   -12.064089 
  486900     459.0207   -406.51065   -406.09531    40.996281 
  487000    304.82502   -406.44069   -406.16488   -46.829567 
  487100    376.14806   -406.65828   -406.31793    45.972175 
  487200    245.14429   -406.67019   -406.44838    -41.08215 
  487300    319.52175   -406.68035   -406.39124    20.419996 
  487400    291.22936   -406.72631    -406.4628    -7.933341 
  487500    271.53178   -406.63626   -406.39057    -17.23371 
  487600    259.10273   -406.58373   -406.34929    38.005067 
  487700     273.1156   -406.58692    -406.3398   -55.119311 
  487800    341.03743   -406.50966   -406.20108    68.858614 
  487900    325.49737   -406.40939   -406.11487   -53.923786 
  488000    351.41812   -406.40653   -406.08856    33.024779 
  488100    372.04474    -406.5251   -406.18847     8.807597 
  488200    219.00238    -406.5272   -406.32904   -18.490982 
  488300     331.3292   -406.73645   -406.43666    8.4204458 
  488400    213.25562   -406.60659   -406.41363   -2.1368824 
  488500    343.29223   -406.80965   -406.49903   -21.165633 
  488600    192.38121   -406.61565   -406.44158    34.010629 
  488700    356.84729   -406.65529   -406.33241   -37.375328 
  488800    312.11688   -406.56373   -406.28132    11.347364 
  488900    432.76186   -406.64737   -406.25579    25.134083 
  489000    348.56189    -406.4414   -406.12601    -54.42889 
  489100     497.4232   -406.59089   -406.14081    57.171409 
  489200     206.2023    -406.3841   -406.19753   -52.643582 
  489300    380.75382   -406.75904   -406.41453    45.586312 
  489400    161.32375   -406.57508   -406.42911   -31.847508 
  489500    242.48191   -406.68735   -406.46795    17.294139 
  489600    180.95231   -406.62819   -406.46446    5.3808561 
  489700    264.48362   -406.63559   -406.39628   -16.226642 
  489800    244.24117   -406.57253   -406.35153    17.710541 
  489900    395.63206   -406.68042   -406.32245   -11.145317 
  490000    426.67181   -406.60322   -406.21716   -13.703533 
  490100    410.27924   -406.65667   -406.28544    13.712203 
  490200    382.45249   -406.58783   -406.24178   -11.965348 
  490300    290.06595   -406.56664   -406.30418   -5.1811154 
  490400    409.77978   -406.73713   -406.36635    20.001472 
  490500    193.77522   -406.49588   -406.32055   -26.697359 
  490600    383.84972   -406.72001   -406.37269     28.31409 
  490700    158.09178   -406.52385   -406.38081   -31.215063 
  490800    271.29612   -406.56032   -406.31485    37.642633 
  490900     272.8482   -406.54667   -406.29979   -25.161998 
  491000    314.91469     -406.605   -406.32006    16.918833 
  491100    354.75358    -406.5825   -406.26152   -2.8814628 
  491200    265.85452    -406.3924   -406.15185   -1.4659823 
  491300    558.10765   -406.56656   -406.06157   -3.9190813 
  491400    372.12198   -406.38176   -406.04506   -11.570963 
  491500    452.40859   -406.60508   -406.19573    24.823992 
  491600    316.25772   -406.65096    -406.3648   -17.115313 
  491700    293.01792   -406.67612   -406.41099   -3.6414475 
  491800    235.50335   -406.64595   -406.43286    17.998283 
  491900     255.7461   -406.68276   -406.45136   -17.009943 
  492000    344.93688   -406.74536   -406.43325   -3.4922123 
  492100     206.4053   -406.57014   -406.38338    19.602932 
  492200     376.4626    -406.6614   -406.32077   -26.707532 
  492300    357.02404   -406.47731   -406.15426    17.067345 
  492400    477.96755   -406.58408   -406.15161   -17.365458 
  492500     328.3316   -406.33114   -406.03406    22.162755 
  492600    439.08218   -406.63599    -406.2387   -13.496738 
  492700    269.85932   -406.64611   -406.40194    1.5330624 
  492800    202.36623   -406.64604   -406.46293    4.1205578 
  492900    258.40633   -406.70481     -406.471    7.5251709 
  493000    215.82202   -406.66087   -406.46559   -17.258001 
  493100    252.06452   -406.66902   -406.44095     29.91607 
  493200    308.61888   -406.62858   -406.34934   -30.626812 
  493300    465.33853   -406.70116   -406.28011    15.373335 
  493400    283.94346   -406.50049   -406.24358   -10.883223 
  493500    404.41967   -406.55534   -406.18941   0.96544422 
  493600     483.8288   -406.66001   -406.22223    3.8548035 
  493700    295.77484   -406.51767   -406.25004   -10.782554 
  493800    270.43226   -406.65793   -406.41324    14.743203 
  493900    216.61086    -406.7151    -406.5191   -4.3907232 
  494000    227.57753   -406.67582    -406.4699   -5.2403944 
  494100    187.46977   -406.60263   -406.43301    16.322494 
  494200    340.98569   -406.75975   -406.45122   -23.517334 
  494300    329.41067   -406.59145   -406.29339    6.7484578 
  494400    454.80387   -406.71133   -406.29981    12.068127 
  494500     368.8641    -406.6516   -406.31784   -32.732669 
  494600    377.86193   -406.60002   -406.25812    34.327154 
  494700    273.33265   -406.60937   -406.36205   -11.803557 
  494800    287.37231   -406.67972    -406.4197   -8.3624479 
  494900    167.96675   -406.72025   -406.56827    13.936011 
  495000    171.64648    -406.7124   -406.55709   -8.1795035 
  495100    192.42858   -406.69463   -406.52052     -1.65224 
  495200    270.33265   -406.69373   -406.44912    5.8612207 
  495300    175.53825   -406.59395   -406.43512   -16.423021 
  495400    369.59767   -406.66335   -406.32893    42.252055 
  495500    195.90972   -406.52166    -406.3444    -57.61488 
  495600    322.56653   -406.58995   -406.29808    59.506799 
  495700    289.35487   -406.51254   -406.25072   -23.667944 
  495800    290.89618   -406.53409   -406.27088   -12.032649 
  495900    350.55669   -406.61873   -406.30154    39.191523 
  496000    189.20373    -406.4536   -406.28241   -18.934143 
  496100    429.79312   -406.72395   -406.33506    -8.915994 
  496200    220.75388   -406.59932   -406.39957     15.53923 
  496300    206.58241   -406.62345   -406.43653   -23.356011 
  496400    260.13968   -406.73018    -406.4948    28.822017 
  496500    311.17719   -406.75074   -406.46918   -35.907503 
  496600    270.59014   -406.65798   -406.41315    12.924733 
  496700    410.26646   -406.63527   -406.26405    20.778983 
  496800    412.38515   -406.55729   -406.18416    -49.54994 
  496900    496.34759   -406.58743   -406.13833    28.859545 
  497000    321.48606   -406.41893   -406.12804   -2.2836952 
  497100    427.11162   -406.61563   -406.22917   -12.334931 
  497200    387.93268   -406.64629   -406.29528    2.5273135 
  497300    178.72113   -406.49055   -406.32884    5.3791737 
  497400    413.94554   -406.74952   -406.37497     11.57162 
  497500    376.94134   -406.68927    -406.3482   -21.249269 
  497600    242.42464   -406.53852   -406.31917   0.51480657 
  497700    307.51295     -406.694   -406.41575    37.392481 
  497800    198.43806   -406.54243   -406.36288   -53.291046 
  497900    271.60522    -406.6208   -406.37504    43.326499 
  498000    214.82348   -406.58996   -406.39559   -10.643514 
  498100    434.08343   -406.65731   -406.26454   -18.603231 
  498200    288.94318   -406.37445     -406.113    24.222421 
  498300    407.58703   -406.42306   -406.05427    4.8856831 
  498400    468.27973   -406.61879   -406.19508   -23.402953 
  498500    426.99219   -406.75731   -406.37096    12.846859 
  498600    187.67453   -406.55579   -406.38598   -11.559634 
  498700    382.12698   -406.77726    -406.4315    18.542745 
  498800     289.1359   -406.68969   -406.42807    -19.99334 
  498900    287.94905    -406.6986   -406.43805    5.8945263 
  499000    232.73411    -406.6375   -406.42692    14.917093 
  499100    371.90405    -406.6674   -406.33089   -28.845873 
  499200    412.73846   -406.62989   -406.25644    7.1448834 
  499300    497.91087   -406.56213   -406.11161    25.347043 
  499400    461.21523   -406.46356   -406.04625   -38.876068 
  499500    524.23857   -406.64661   -406.17227    1.9044804 
  499600    265.79666   -406.59065   -406.35015    26.662787 
  499700    243.92239   -406.58606   -406.36535   -31.624062 
  499800    346.31934   -406.73589   -406.42253    16.814904 
  499900    163.82723    -406.5096   -406.36136    8.1185259 
  500000    311.74627   -406.64464   -406.36257    -14.97906 
  500100    351.66132   -406.66608   -406.34789    6.4883179 
  500200    350.09366   -406.61302   -406.29624   -9.3310219 
  500300    353.60882   -406.50796   -406.18801    10.760213 
  500400    462.04778   -406.60054   -406.18247   -2.0483974 
  500500    391.86182   -406.65141   -406.29684   -22.129912 
  500600    306.25851   -406.59253   -406.31542    45.150867 
  500700    167.81252   -406.57427   -406.42243   -38.325903 
  500800    296.61206   -406.76061   -406.49223    18.485274 
  500900    266.19423   -406.71802   -406.47716    7.7845781 
  501000     241.1628   -406.68222   -406.46401   -35.110303 
  501100    228.49808   -406.59939   -406.39264    35.901863 
  501200    246.20016   -406.58722   -406.36445   -10.295317 
  501300    303.87665   -406.56146    -406.2865     -16.2064 
  501400    317.81718   -406.52667   -406.23911    32.734405 
  501500    270.96126   -406.49941   -406.25424   -34.619849 
  501600    303.03792   -406.49065   -406.21645    42.515288 
  501700    409.29354   -406.64584   -406.27551   -34.079299 
  501800    294.06405   -406.59318   -406.32711   -1.9783528 
  501900    364.91237    -406.7093   -406.37912     29.33111 
  502000    277.88558   -406.65032   -406.39888   -22.957447 
  502100    345.55909   -406.71128   -406.39861   -5.0466639 
  502200     186.7437   -406.61668   -406.44771    29.943859 
  502300    213.62603   -406.68858   -406.49529   -28.579869 
  502400     280.4186   -406.68922   -406.43549     20.79961 
  502500    206.37144   -406.63461   -406.44788   -15.026342 
  502600    233.28154   -406.69524   -406.48416    8.6912513 
  502700    385.56228   -406.76535   -406.41648    -1.473975 
  502800    192.25795   -406.53488   -406.36092   -23.636142 
  502900    452.08129   -406.61084   -406.20178    43.005777 
  503000    400.67159   -406.55988   -406.19734   -40.130733 
  503100    348.04561   -406.59337   -406.27846   -8.9502859 
  503200    211.64132   -406.50183   -406.31034    46.659617 
  503300    261.46655   -406.66556   -406.42898   -44.582239 
  503400    289.04283   -406.70644   -406.44491     3.044351 
  503500    217.55306   -406.70957   -406.51272    33.397853 
  503600     147.6349   -406.69707   -406.56349   -40.704424 
WARNING: Wall time limit reached (../timer.cpp:262)
Loop time of 1199.53 on 1 procs for 503600 steps with 8 atoms

Performance: 18.137 ns/day, 1.323 hours/ns, 419.830 timesteps/s
181.9% CPU use with 1 MPI tasks x no OpenMP threads

MPI task timing breakdown:
Section |  min time  |  avg time  |  max time  |%varavg| %total
---------------------------------------------------------------
Pair    | 945.63     | 945.63     | 945.63     |   0.0 | 78.83
Neigh   | 0.017168   | 0.017168   | 0.017168   |   0.0 |  0.00
Comm    | 0.23223    | 0.23223    | 0.23223    |   0.0 |  0.02
Output  | 0.25796    | 0.25796    | 0.25796    |   0.0 |  0.02
Modify  | 253.12     | 253.12     | 253.12     |   0.0 | 21.10
Other   |            | 0.2845     |            |       |  0.02

Nlocal:    8 ave 8 max 8 min
Histogram: 1 0 0 0 0 0 0 0 0 0
Nghost:    0 ave 0 max 0 min
Histogram: 1 0 0 0 0 0 0 0 0 0
Neighs:    0 ave 0 max 0 min
Histogram: 1 0 0 0 0 0 0 0 0 0

Total # of neighbors = 0
Ave neighs/atom = 0
Neighbor list builds = 1659
Dangerous builds = 0

write_restart lammps.restart
WARNING: Pair style restartinfo set but has no restart support (../pair.cpp:711)
Total wall time: 0:20:00
