ITEM: TIMESTEP
0
ITEM: NUMBER OF ATOMS
8
ITEM: BOX BOUNDS pp pp pp
-2.0000000000000000e+01 2.0000000000000000e+01
-2.0000000000000000e+01 2.0000000000000000e+01
-2.0000000000000000e+01 2.0000000000000000e+01
ITEM: ATOMS id type xs ys zs
3 2 0.448185 0.523455 0.510977
4 2 0.429097 0.539907 0.474475
1 1 0.436933 0.545839 0.5
5 2 0.414696 0.552319 0.514549
8 2 0.450359 0.596857 0.489023
2 1 0.461612 0.574473 0.5
6 2 0.483849 0.567993 0.485451
7 2 0.469447 0.580406 0.525525
ITEM: TIMESTEP
100
ITEM: NUMBER OF ATOMS
8
ITEM: BOX BOUNDS pp pp pp
-2.0000000000000000e+01 2.0000000000000000e+01
-2.0000000000000000e+01 2.0000000000000000e+01
-2.0000000000000000e+01 2.0000000000000000e+01
ITEM: ATOMS id type xs ys zs
3 2 0.447856 0.52303 0.511881
4 2 0.429434 0.539964 0.473179
1 1 0.436423 0.545523 0.500032
5 2 0.41271 0.551568 0.514654
8 2 0.447737 0.59639 0.489933
2 1 0.462228 0.574718 0.499959
6 2 0.485663 0.568746 0.484829
7 2 0.470963 0.582094 0.525632
ITEM: TIMESTEP
200
ITEM: NUMBER OF ATOMS
8
ITEM: BOX BOUNDS pp pp pp
-2.0000000000000000e+01 2.0000000000000000e+01
-2.0000000000000000e+01 2.0000000000000000e+01
-2.0000000000000000e+01 2.0000000000000000e+01
ITEM: ATOMS id type xs ys zs
3 2 0.446431 0.524353 0.514247
4 2 0.432239 0.539295 0.474591
1 1 0.436876 0.5457 0.500053
5 2 0.41433 0.553637 0.511247
8 2 0.447949 0.596964 0.492706
2 1 0.461726 0.57458 0.499866
6 2 0.481672 0.568536 0.48387
7 2 0.47233 0.578537 0.524304
ITEM: TIMESTEP
300
ITEM: NUMBER OF ATOMS
8
ITEM: BOX BOUNDS pp pp pp
-2.0000000000000000e+01 2.0000000000000000e+01
-2.0000000000000000e+01 2.0000000000000000e+01
-2.0000000000000000e+01 2.0000000000000000e+01
ITEM: ATOMS id type xs ys zs
3 2 0.450443 0.521601 0.504991
4 2 0.423935 0.54387 0.474943
1 1 0.436476 0.544684 0.500124
5 2 0.417518 0.551155 0.520244
8 2 0.453482 0.595748 0.483382
2 1 0.461981 0.575726 0.499789
6 2 0.486231 0.56382 0.491022
7 2 0.465067 0.58358 0.526454
ITEM: TIMESTEP
400
ITEM: NUMBER OF ATOMS
8
ITEM: BOX BOUNDS pp pp pp
-2.0000000000000000e+01 2.0000000000000000e+01
-2.0000000000000000e+01 2.0000000000000000e+01
-2.0000000000000000e+01 2.0000000000000000e+01
ITEM: ATOMS id type xs ys zs
3 2 0.450873 0.525418 0.513536
4 2 0.431073 0.537247 0.474953
1 1 0.436682 0.545842 0.499977
5 2 0.415055 0.554554 0.512995
8 2 0.448289 0.598046 0.490584
2 1 0.461816 0.574521 0.499931
6 2 0.481577 0.568367 0.482998
7 2 0.469311 0.576704 0.52603
ITEM: TIMESTEP
500
ITEM: NUMBER OF ATOMS
8
ITEM: BOX BOUNDS pp pp pp
-2.0000000000000000e+01 2.0000000000000000e+01
-2.0000000000000000e+01 2.0000000000000000e+01
-2.0000000000000000e+01 2.0000000000000000e+01
ITEM: ATOMS id type xs ys zs
3 2 0.445208 0.527373 0.516706
4 2 0.43611 0.53471 0.475187
1 1 0.435989 0.544904 0.500231
5 2 0.411726 0.554744 0.508647
8 2 0.448859 0.596312 0.495232
2 1 0.462662 0.575311 0.499991
6 2 0.478064 0.573081 0.477466
7 2 0.474391 0.575884 0.524116
ITEM: TIMESTEP
600
ITEM: NUMBER OF ATOMS
8
ITEM: BOX BOUNDS pp pp pp
-2.0000000000000000e+01 2.0000000000000000e+01
-2.0000000000000000e+01 2.0000000000000000e+01
-2.0000000000000000e+01 2.0000000000000000e+01
ITEM: ATOMS id type xs ys zs
3 2 0.450913 0.520353 0.506192
4 2 0.427394 0.546921 0.474779
1 1 0.436844 0.545534 0.500524
5 2 0.417801 0.551446 0.519221
8 2 0.450264 0.594762 0.481595
2 1 0.461747 0.574742 0.499782
6 2 0.484709 0.565733 0.48854
7 2 0.463997 0.582157 0.526032
ITEM: TIMESTEP
700
ITEM: NUMBER OF ATOMS
8
ITEM: BOX BOUNDS pp pp pp
-2.0000000000000000e+01 2.0000000000000000e+01
-2.0000000000000000e+01 2.0000000000000000e+01
-2.0000000000000000e+01 2.0000000000000000e+01
ITEM: ATOMS id type xs ys zs
3 2 0.449368 0.522604 0.502003
4 2 0.421665 0.546802 0.477552
1 1 0.436326 0.544664 0.499902
5 2 0.421192 0.548161 0.522178
8 2 0.454816 0.592911 0.481518
2 1 0.462145 0.575692 0.499866
6 2 0.486643 0.563903 0.494479
7 2 0.46282 0.586041 0.525024
ITEM: TIMESTEP
800
ITEM: NUMBER OF ATOMS
8
ITEM: BOX BOUNDS pp pp pp
-2.0000000000000000e+01 2.0000000000000000e+01
-2.0000000000000000e+01 2.0000000000000000e+01
-2.0000000000000000e+01 2.0000000000000000e+01
ITEM: ATOMS id type xs ys zs
3 2 0.450151 0.528077 0.516185
4 2 0.432247 0.535575 0.47409
1 1 0.43645 0.545924 0.499353
5 2 0.413458 0.553021 0.512137
8 2 0.447376 0.597888 0.495562
2 1 0.461867 0.574536 0.500186
6 2 0.481172 0.567806 0.482822
7 2 0.473935 0.576809 0.524692
ITEM: TIMESTEP
900
ITEM: NUMBER OF ATOMS
8
ITEM: BOX BOUNDS pp pp pp
-2.0000000000000000e+01 2.0000000000000000e+01
-2.0000000000000000e+01 2.0000000000000000e+01
-2.0000000000000000e+01 2.0000000000000000e+01
ITEM: ATOMS id type xs ys zs
3 2 0.444696 0.526707 0.519579
4 2 0.436953 0.533753 0.474941
1 1 0.436254 0.5451 0.500099
5 2 0.410807 0.555 0.504983
8 2 0.446897 0.598001 0.501677
2 1 0.462163 0.575235 0.49977
6 2 0.479544 0.572717 0.477787
7 2 0.478262 0.574489 0.522594
ITEM: TIMESTEP
1000
ITEM: NUMBER OF ATOMS
8
ITEM: BOX BOUNDS pp pp pp
-2.0000000000000000e+01 2.0000000000000000e+01
-2.0000000000000000e+01 2.0000000000000000e+01
-2.0000000000000000e+01 2.0000000000000000e+01
ITEM: ATOMS id type xs ys zs
3 2 0.445604 0.522031 0.510303
4 2 0.431438 0.541858 0.474214
1 1 0.437227 0.545278 0.500604
5 2 0.414234 0.554416 0.511426
8 2 0.448835 0.597743 0.491672
2 1 0.461499 0.574801 0.49973
6 2 0.482653 0.569561 0.483335
7 2 0.470694 0.578107 0.525066
ITEM: TIMESTEP
1100
ITEM: NUMBER OF ATOMS
8
ITEM: BOX BOUNDS pp pp pp
-2.0000000000000000e+01 2.0000000000000000e+01
-2.0000000000000000e+01 2.0000000000000000e+01
-2.0000000000000000e+01 2.0000000000000000e+01
ITEM: ATOMS id type xs ys zs
3 2 0.449676 0.520764 0.507953
4 2 0.426143 0.540852 0.474409
1 1 0.436696 0.545449 0.49977
5 2 0.415216 0.551685 0.516537
8 2 0.45103 0.59761 0.486657
2 1 0.461938 0.574808 0.500445
6 2 0.484585 0.56886 0.485151
7 2 0.467918 0.58182 0.526731
ITEM: TIMESTEP
1200
ITEM: NUMBER OF ATOMS
8
ITEM: BOX BOUNDS pp pp pp
-2.0000000000000000e+01 2.0000000000000000e+01
-2.0000000000000000e+01 2.0000000000000000e+01
-2.0000000000000000e+01 2.0000000000000000e+01
ITEM: ATOMS id type xs ys zs
3 2 0.449125 0.52621 0.512202
4 2 0.429318 0.536262 0.474707
1 1 0.436682 0.545983 0.499438
5 2 0.414658 0.550679 0.515675
8 2 0.450949 0.596675 0.490153
2 1 0.461713 0.574446 0.500518
6 2 0.481586 0.570272 0.482299
7 2 0.471775 0.579444 0.525485
ITEM: TIMESTEP
1300
ITEM: NUMBER OF ATOMS
8
ITEM: BOX BOUNDS pp pp pp
-2.0000000000000000e+01 2.0000000000000000e+01
-2.0000000000000000e+01 2.0000000000000000e+01
-2.0000000000000000e+01 2.0000000000000000e+01
ITEM: ATOMS id type xs ys zs
3 2 0.448948 0.521195 0.507872
4 2 0.426079 0.541185 0.475359
1 1 0.43675 0.54566 0.500149
5 2 0.416492 0.547326 0.518021
8 2 0.453126 0.598379 0.48673
2 1 0.461498 0.574857 0.499684
6 2 0.485789 0.568111 0.488406
7 2 0.468724 0.582302 0.525594
ITEM: TIMESTEP
1400
ITEM: NUMBER OF ATOMS
8
ITEM: BOX BOUNDS pp pp pp
-2.0000000000000000e+01 2.0000000000000000e+01
-2.0000000000000000e+01 2.0000000000000000e+01
-2.0000000000000000e+01 2.0000000000000000e+01
ITEM: ATOMS id type xs ys zs
3 2 0.444892 0.521885 0.510855
4 2 0.430045 0.541139 0.473512
1 1 0.437432 0.54554 0.500579
5 2 0.413109 0.551176 0.514223
8 2 0.450921 0.598703 0.4919
2 1 0.461147 0.574754 0.499307
6 2 0.484841 0.569727 0.485703
7 2 0.471408 0.578526 0.525172
ITEM: TIMESTEP
1500
ITEM: NUMBER OF ATOMS
8
ITEM: BOX BOUNDS pp pp pp
-2.0000000000000000e+01 2.0000000000000000e+01
-2.0000000000000000e+01 2.0000000000000000e+01
-2.0000000000000000e+01 2.0000000000000000e+01
ITEM: ATOMS id type xs ys zs
3 2 0.447555 0.519547 0.499171
4 2 0.420022 0.54615 0.479396
1 1 0.436825 0.545569 0.499976
5 2 0.420562 0.54492 0.521052
8 2 0.454609 0.593206 0.481097
2 1 0.461921 0.574604 0.500154
6 2 0.487622 0.569021 0.495475
7 2 0.46286 0.589751 0.522262
ITEM: TIMESTEP
1600
ITEM: NUMBER OF ATOMS
8
ITEM: BOX BOUNDS pp pp pp
-2.0000000000000000e+01 2.0000000000000000e+01
-2.0000000000000000e+01 2.0000000000000000e+01
-2.0000000000000000e+01 2.0000000000000000e+01
ITEM: ATOMS id type xs ys zs
3 2 0.442508 0.525754 0.482817
1 1 0.43714 0.546089 0.49948
5 2 0.435443 0.534573 0.525715
4 2 0.409391 0.551144 0.496031
7 2 0.450205 0.59798 0.509811
8 2 0.469361 0.582387 0.474979
2 1 0.461608 0.57402 0.500261
6 2 0.4863 0.571522 0.513735
ITEM: TIMESTEP
1700
ITEM: NUMBER OF ATOMS
8
ITEM: BOX BOUNDS pp pp pp
-2.0000000000000000e+01 2.0000000000000000e+01
-2.0000000000000000e+01 2.0000000000000000e+01
-2.0000000000000000e+01 2.0000000000000000e+01
ITEM: ATOMS id type xs ys zs
3 2 0.427554 0.537957 0.474717
1 1 0.437035 0.545572 0.500191
5 2 0.447107 0.523488 0.511181
4 2 0.414659 0.549037 0.514151
7 2 0.453126 0.599058 0.490971
8 2 0.484974 0.56937 0.487113
2 1 0.461284 0.574958 0.499614
6 2 0.470903 0.579442 0.524188
ITEM: TIMESTEP
1800
ITEM: NUMBER OF ATOMS
8
ITEM: BOX BOUNDS pp pp pp
-2.0000000000000000e+01 2.0000000000000000e+01
-2.0000000000000000e+01 2.0000000000000000e+01
-2.0000000000000000e+01 2.0000000000000000e+01
ITEM: ATOMS id type xs ys zs
3 2 0.415424 0.551157 0.486369
1 1 0.437442 0.545673 0.500431
5 2 0.44659 0.522611 0.487012
4 2 0.426379 0.537401 0.524969
7 2 0.463808 0.587776 0.475323
8 2 0.486009 0.567152 0.508251
2 1 0.461164 0.574596 0.499582
6 2 0.456686 0.595359 0.517927
ITEM: TIMESTEP
1900
ITEM: NUMBER OF ATOMS
8
ITEM: BOX BOUNDS pp pp pp
-2.0000000000000000e+01 2.0000000000000000e+01
-2.0000000000000000e+01 2.0000000000000000e+01
-2.0000000000000000e+01 2.0000000000000000e+01
ITEM: ATOMS id type xs ys zs
3 2 0.409567 0.553376 0.500047
1 1 0.437326 0.545513 0.499947
5 2 0.437439 0.528467 0.478417
4 2 0.437547 0.531383 0.522866
7 2 0.471784 0.57901 0.475075
8 2 0.482471 0.576997 0.518832
2 1 0.461901 0.574268 0.500125
6 2 0.448689 0.598034 0.503903
ITEM: TIMESTEP
2000
ITEM: NUMBER OF ATOMS
8
ITEM: BOX BOUNDS pp pp pp
-2.0000000000000000e+01 2.0000000000000000e+01
-2.0000000000000000e+01 2.0000000000000000e+01
-2.0000000000000000e+01 2.0000000000000000e+01
ITEM: ATOMS id type xs ys zs
3 2 0.411739 0.550894 0.494806
1 1 0.436915 0.545463 0.499759
5 2 0.442551 0.525532 0.481566
4 2 0.435708 0.535259 0.525672
7 2 0.469708 0.58071 0.474445
8 2 0.4844 0.571319 0.514128
2 1 0.461707 0.574785 0.500197
6 2 0.450596 0.597994 0.509903
ITEM: TIMESTEP
2100
ITEM: NUMBER OF ATOMS
8
ITEM: BOX BOUNDS pp pp pp
-2.0000000000000000e+01 2.0000000000000000e+01
-2.0000000000000000e+01 2.0000000000000000e+01
-2.0000000000000000e+01 2.0000000000000000e+01
ITEM: ATOMS id type xs ys zs
3 2 0.417712 0.548055 0.479921
1 1 0.437433 0.545581 0.500761
5 2 0.450136 0.521391 0.494861
4 2 0.423025 0.541423 0.523799
7 2 0.463307 0.592566 0.477923
8 2 0.487378 0.564138 0.500427
2 1 0.46081 0.57504 0.499266
6 2 0.457668 0.589683 0.522745
ITEM: TIMESTEP
2200
ITEM: NUMBER OF ATOMS
8
ITEM: BOX BOUNDS pp pp pp
-2.0000000000000000e+01 2.0000000000000000e+01
-2.0000000000000000e+01 2.0000000000000000e+01
-2.0000000000000000e+01 2.0000000000000000e+01
ITEM: ATOMS id type xs ys zs
3 2 0.428234 0.54036 0.474761
1 1 0.436941 0.545245 0.500235
5 2 0.446337 0.521899 0.511678
4 2 0.41407 0.549956 0.515444
7 2 0.450868 0.597132 0.488394
8 2 0.484441 0.570999 0.485848
2 1 0.461982 0.574965 0.49962
6 2 0.467169 0.581808 0.525606
ITEM: TIMESTEP
2300
ITEM: NUMBER OF ATOMS
8
ITEM: BOX BOUNDS pp pp pp
-2.0000000000000000e+01 2.0000000000000000e+01
-2.0000000000000000e+01 2.0000000000000000e+01
-2.0000000000000000e+01 2.0000000000000000e+01
ITEM: ATOMS id type xs ys zs
3 2 0.441812 0.527634 0.478964
1 1 0.437177 0.545766 0.499445
5 2 0.437433 0.534185 0.52394
4 2 0.41136 0.553941 0.498014
7 2 0.446333 0.597253 0.504906
8 2 0.470238 0.577114 0.47381
2 1 0.46178 0.57428 0.500781
6 2 0.483542 0.573991 0.517666
ITEM: TIMESTEP
2400
ITEM: NUMBER OF ATOMS
8
ITEM: BOX BOUNDS pp pp pp
-2.0000000000000000e+01 2.0000000000000000e+01
-2.0000000000000000e+01 2.0000000000000000e+01
-2.0000000000000000e+01 2.0000000000000000e+01
ITEM: ATOMS id type xs ys zs
3 2 0.449397 0.520803 0.494051
1 1 0.436754 0.544853 0.5
5 2 0.423492 0.543502 0.524945
4 2 0.416775 0.547953 0.480613
7 2 0.456703 0.592011 0.521363
8 2 0.460248 0.589379 0.476518
2 1 0.461863 0.575523 0.50007
6 2 0.488155 0.56653 0.501675
ITEM: TIMESTEP
2500
ITEM: NUMBER OF ATOMS
8
ITEM: BOX BOUNDS pp pp pp
-2.0000000000000000e+01 2.0000000000000000e+01
-2.0000000000000000e+01 2.0000000000000000e+01
-2.0000000000000000e+01 2.0000000000000000e+01
ITEM: ATOMS id type xs ys zs
3 2 0.450933 0.523339 0.491733
1 1 0.437202 0.545654 0.500492
5 2 0.428091 0.539012 0.525104
4 2 0.417342 0.55063 0.482728
7 2 0.45443 0.591763 0.519662
8 2 0.465013 0.587046 0.475176
2 1 0.460944 0.57512 0.499468
6 2 0.48458 0.563645 0.50608
ITEM: TIMESTEP
2600
ITEM: NUMBER OF ATOMS
8
ITEM: BOX BOUNDS pp pp pp
-2.0000000000000000e+01 2.0000000000000000e+01
-2.0000000000000000e+01 2.0000000000000000e+01
-2.0000000000000000e+01 2.0000000000000000e+01
ITEM: ATOMS id type xs ys zs
3 2 0.44166 0.527949 0.47913
1 1 0.436394 0.544943 0.499824
5 2 0.441393 0.529273 0.521894
4 2 0.410354 0.554202 0.499141
7 2 0.447604 0.599176 0.502662
8 2 0.474898 0.575631 0.475825
2 1 0.462077 0.575519 0.500193
6 2 0.480597 0.572926 0.521145
ITEM: TIMESTEP
2700
ITEM: NUMBER OF ATOMS
8
ITEM: BOX BOUNDS pp pp pp
-2.0000000000000000e+01 2.0000000000000000e+01
-2.0000000000000000e+01 2.0000000000000000e+01
-2.0000000000000000e+01 2.0000000000000000e+01
ITEM: ATOMS id type xs ys zs
3 2 0.435204 0.532826 0.475001
1 1 0.437191 0.54555 0.499665
5 2 0.444141 0.527223 0.518809
4 2 0.413548 0.556936 0.50704
7 2 0.445868 0.595436 0.494501
8 2 0.478189 0.573253 0.478824
2 1 0.46177 0.57453 0.500476
6 2 0.473723 0.578039 0.524144
ITEM: TIMESTEP
2800
ITEM: NUMBER OF ATOMS
8
ITEM: BOX BOUNDS pp pp pp
-2.0000000000000000e+01 2.0000000000000000e+01
-2.0000000000000000e+01 2.0000000000000000e+01
-2.0000000000000000e+01 2.0000000000000000e+01
ITEM: ATOMS id type xs ys zs
3 2 0.420491 0.548987 0.479309
1 1 0.436646 0.544505 0.500241
5 2 0.449363 0.520256 0.499064
4 2 0.421511 0.544195 0.523558
7 2 0.459937 0.591412 0.476935
8 2 0.487228 0.566063 0.499338
2 1 0.46197 0.575832 0.499656
6 2 0.456243 0.589724 0.523014
ITEM: TIMESTEP
2900
ITEM: NUMBER OF ATOMS
8
ITEM: BOX BOUNDS pp pp pp
-2.0000000000000000e+01 2.0000000000000000e+01
-2.0000000000000000e+01 2.0000000000000000e+01
-2.0000000000000000e+01 2.0000000000000000e+01
ITEM: ATOMS id type xs ys zs
3 2 0.41157 0.554093 0.493881
1 1 0.437052 0.545656 0.500406
5 2 0.448736 0.527313 0.483676
4 2 0.437794 0.531398 0.523528
7 2 0.473451 0.577208 0.475173
8 2 0.480845 0.565673 0.516362
2 1 0.460928 0.575212 0.499562
6 2 0.449964 0.598625 0.507759
ITEM: TIMESTEP
3000
ITEM: NUMBER OF ATOMS
8
ITEM: BOX BOUNDS pp pp pp
-2.0000000000000000e+01 2.0000000000000000e+01
-2.0000000000000000e+01 2.0000000000000000e+01
-2.0000000000000000e+01 2.0000000000000000e+01
ITEM: ATOMS id type xs ys zs
3 2 0.41179 0.551517 0.490732
1 1 0.436541 0.545065 0.499768
5 2 0.447916 0.524922 0.484024
4 2 0.434122 0.535816 0.525922
7 2 0.466806 0.581022 0.473941
8 2 0.483333 0.569714 0.516577
2 1 0.462129 0.575209 0.500135
6 2 0.450172 0.598404 0.509955
ITEM: TIMESTEP
3100
ITEM: NUMBER OF ATOMS
8
ITEM: BOX BOUNDS pp pp pp
-2.0000000000000000e+01 2.0000000000000000e+01
-2.0000000000000000e+01 2.0000000000000000e+01
-2.0000000000000000e+01 2.0000000000000000e+01
ITEM: ATOMS id type xs ys zs
3 2 0.418868 0.548396 0.478564
1 1 0.437358 0.545207 0.499861
5 2 0.448517 0.520192 0.496183
4 2 0.42293 0.548107 0.522984
7 2 0.454787 0.588666 0.477612
8 2 0.488617 0.568568 0.503835
2 1 0.461732 0.574695 0.500137
6 2 0.45541 0.591903 0.520846
ITEM: TIMESTEP
3200
ITEM: NUMBER OF ATOMS
8
ITEM: BOX BOUNDS pp pp pp
-2.0000000000000000e+01 2.0000000000000000e+01
-2.0000000000000000e+01 2.0000000000000000e+01
-2.0000000000000000e+01 2.0000000000000000e+01
ITEM: ATOMS id type xs ys zs
3 2 0.433261 0.536088 0.474619
1 1 0.437204 0.544965 0.50013
5 2 0.445146 0.522243 0.512055
4 2 0.413965 0.555834 0.508824
7 2 0.44876 0.597832 0.490687
8 2 0.484766 0.569952 0.487083
2 1 0.461355 0.57538 0.499948
6 2 0.46955 0.578606 0.525804
ITEM: TIMESTEP
3300
ITEM: NUMBER OF ATOMS
8
ITEM: BOX BOUNDS pp pp pp
-2.0000000000000000e+01 2.0000000000000000e+01
-2.0000000000000000e+01 2.0000000000000000e+01
-2.0000000000000000e+01 2.0000000000000000e+01
ITEM: ATOMS id type xs ys zs
3 2 0.448188 0.527322 0.481654
1 1 0.436799 0.54552 0.499668
5 2 0.437985 0.530333 0.523592
4 2 0.410045 0.550164 0.493458
7 2 0.450739 0.601336 0.505354
8 2 0.473115 0.578247 0.474453
2 1 0.461355 0.575211 0.50047
6 2 0.480209 0.568549 0.519852
ITEM: TIMESTEP
3400
ITEM: NUMBER OF ATOMS
8
ITEM: BOX BOUNDS pp pp pp
-2.0000000000000000e+01 2.0000000000000000e+01
-2.0000000000000000e+01 2.0000000000000000e+01
-2.0000000000000000e+01 2.0000000000000000e+01
ITEM: ATOMS id type xs ys zs
3 2 0.452687 0.522209 0.505973
1 1 0.436879 0.545534 0.499336
5 2 0.417887 0.545713 0.519413
4 2 0.424035 0.54031 0.475662
7 2 0.46338 0.590295 0.522939
8 2 0.45314 0.591954 0.481578
2 1 0.461425 0.57514 0.500592
6 2 0.48737 0.566152 0.495288
ITEM: TIMESTEP
3500
ITEM: NUMBER OF ATOMS
8
ITEM: BOX BOUNDS pp pp pp
-2.0000000000000000e+01 2.0000000000000000e+01
-2.0000000000000000e+01 2.0000000000000000e+01
-2.0000000000000000e+01 2.0000000000000000e+01
ITEM: ATOMS id type xs ys zs
3 2 0.435123 0.53248 0.522964
1 1 0.437352 0.545053 0.499748
5 2 0.413048 0.555461 0.492815
4 2 0.442578 0.523429 0.482445
7 2 0.482353 0.572793 0.517986
8 2 0.447432 0.598348 0.50735
2 1 0.461228 0.575143 0.500224
6 2 0.47468 0.579813 0.476772
ITEM: TIMESTEP
3600
ITEM: NUMBER OF ATOMS
8
ITEM: BOX BOUNDS pp pp pp
-2.0000000000000000e+01 2.0000000000000000e+01
-2.0000000000000000e+01 2.0000000000000000e+01
-2.0000000000000000e+01 2.0000000000000000e+01
ITEM: ATOMS id type xs ys zs
3 2 0.419394 0.544363 0.521697
1 1 0.437555 0.545333 0.49992
5 2 0.422492 0.547745 0.477238
4 2 0.446665 0.519847 0.50111
7 2 0.48814 0.5684 0.502131
8 2 0.456852 0.58962 0.522928
2 1 0.461164 0.574767 0.499754
6 2 0.460012 0.593492 0.478777
ITEM: TIMESTEP
3700
ITEM: NUMBER OF ATOMS
8
ITEM: BOX BOUNDS pp pp pp
-2.0000000000000000e+01 2.0000000000000000e+01
-2.0000000000000000e+01 2.0000000000000000e+01
-2.0000000000000000e+01 2.0000000000000000e+01
ITEM: ATOMS id type xs ys zs
3 2 0.411452 0.547761 0.509173
1 1 0.43675 0.545773 0.499627
5 2 0.433935 0.534124 0.474807
4 2 0.448663 0.526188 0.515586
7 2 0.483341 0.567304 0.486311
8 2 0.471095 0.583016 0.524438
2 1 0.46136 0.5749 0.50031
6 2 0.45232 0.59825 0.490438
ITEM: TIMESTEP
3800
ITEM: NUMBER OF ATOMS
8
ITEM: BOX BOUNDS pp pp pp
-2.0000000000000000e+01 2.0000000000000000e+01
-2.0000000000000000e+01 2.0000000000000000e+01
-2.0000000000000000e+01 2.0000000000000000e+01
ITEM: ATOMS id type xs ys zs
3 2 0.409693 0.551338 0.500603
1 1 0.437022 0.545672 0.499566
5 2 0.438938 0.528144 0.478532
4 2 0.443431 0.528928 0.520115
7 2 0.480019 0.572078 0.48006
8 2 0.477363 0.578665 0.522678
2 1 0.461201 0.574773 0.500478
6 2 0.450023 0.600206 0.497494
ITEM: TIMESTEP
3900
ITEM: NUMBER OF ATOMS
8
ITEM: BOX BOUNDS pp pp pp
-2.0000000000000000e+01 2.0000000000000000e+01
-2.0000000000000000e+01 2.0000000000000000e+01
-2.0000000000000000e+01 2.0000000000000000e+01
ITEM: ATOMS id type xs ys zs
3 2 0.413794 0.557705 0.503037
1 1 0.437481 0.545007 0.500224
5 2 0.433512 0.531671 0.4765
4 2 0.440362 0.523909 0.517593
7 2 0.48389 0.57533 0.48425
8 2 0.471268 0.579846 0.524761
2 1 0.461491 0.574851 0.499711
6 2 0.447705 0.597888 0.494631
ITEM: TIMESTEP
4000
ITEM: NUMBER OF ATOMS
8
ITEM: BOX BOUNDS pp pp pp
-2.0000000000000000e+01 2.0000000000000000e+01
-2.0000000000000000e+01 2.0000000000000000e+01
-2.0000000000000000e+01 2.0000000000000000e+01
ITEM: ATOMS id type xs ys zs
3 2 0.416805 0.545636 0.519099
1 1 0.437084 0.545507 0.500197
5 2 0.425037 0.542847 0.475439
4 2 0.450641 0.521865 0.502928
7 2 0.48776 0.566998 0.498853
8 2 0.459737 0.588559 0.523944
2 1 0.461058 0.57499 0.499874
6 2 0.460455 0.592834 0.478896
ITEM: TIMESTEP
4100
ITEM: NUMBER OF ATOMS
8
ITEM: BOX BOUNDS pp pp pp
-2.0000000000000000e+01 2.0000000000000000e+01
-2.0000000000000000e+01 2.0000000000000000e+01
-2.0000000000000000e+01 2.0000000000000000e+01
ITEM: ATOMS id type xs ys zs
3 2 0.411649 0.546661 0.511161
1 1 0.436491 0.54575 0.499557
5 2 0.435307 0.535199 0.47393
4 2 0.449862 0.527198 0.515677
7 2 0.483698 0.566433 0.486329
8 2 0.469422 0.583206 0.525672
2 1 0.46128 0.575008 0.500642
6 2 0.454908 0.596928 0.484863
ITEM: TIMESTEP
4200
ITEM: NUMBER OF ATOMS
8
ITEM: BOX BOUNDS pp pp pp
-2.0000000000000000e+01 2.0000000000000000e+01
-2.0000000000000000e+01 2.0000000000000000e+01
-2.0000000000000000e+01 2.0000000000000000e+01
ITEM: ATOMS id type xs ys zs
3 2 0.411884 0.554762 0.501126
1 1 0.437387 0.544995 0.499488
5 2 0.439195 0.530382 0.47664
4 2 0.438312 0.530981 0.522434
7 2 0.479869 0.573901 0.480864
8 2 0.474636 0.578493 0.524199
2 1 0.461505 0.574855 0.500493
6 2 0.447598 0.597931 0.494954
ITEM: TIMESTEP
4300
ITEM: NUMBER OF ATOMS
8
ITEM: BOX BOUNDS pp pp pp
-2.0000000000000000e+01 2.0000000000000000e+01
-2.0000000000000000e+01 2.0000000000000000e+01
-2.0000000000000000e+01 2.0000000000000000e+01
ITEM: ATOMS id type xs ys zs
3 2 0.41266 0.555858 0.493819
1 1 0.437319 0.544578 0.500014
5 2 0.442314 0.527002 0.479564
4 2 0.434258 0.533093 0.525492
7 2 0.480186 0.57777 0.478342
8 2 0.47685 0.575032 0.522989
2 1 0.461488 0.575203 0.49967
6 2 0.446237 0.59852 0.503556
ITEM: TIMESTEP
4400
ITEM: NUMBER OF ATOMS
8
ITEM: BOX BOUNDS pp pp pp
-2.0000000000000000e+01 2.0000000000000000e+01
-2.0000000000000000e+01 2.0000000000000000e+01
-2.0000000000000000e+01 2.0000000000000000e+01
ITEM: ATOMS id type xs ys zs
1 1 0.436633 0.545771 0.499967
5 2 0.453982 0.525664 0.490549
4 2 0.431804 0.534512 0.524331
3 2 0.414043 0.550649 0.484746
6 2 0.449727 0.597278 0.509693
7 2 0.472926 0.578124 0.476283
8 2 0.483928 0.568125 0.514358
2 1 0.461007 0.575094 0.500036
ITEM: TIMESTEP
4500
ITEM: NUMBER OF ATOMS
8
ITEM: BOX BOUNDS pp pp pp
-2.0000000000000000e+01 2.0000000000000000e+01
-2.0000000000000000e+01 2.0000000000000000e+01
-2.0000000000000000e+01 2.0000000000000000e+01
ITEM: ATOMS id type xs ys zs
1 1 0.43653 0.545161 0.499303
5 2 0.45252 0.524263 0.498846
4 2 0.426209 0.538288 0.523474
3 2 0.419379 0.549152 0.479055
6 2 0.45191 0.596948 0.515346
7 2 0.4659 0.582559 0.474117
8 2 0.486222 0.567004 0.506872
2 1 0.461469 0.57538 0.500889
ITEM: TIMESTEP
4600
ITEM: NUMBER OF ATOMS
8
ITEM: BOX BOUNDS pp pp pp
-2.0000000000000000e+01 2.0000000000000000e+01
-2.0000000000000000e+01 2.0000000000000000e+01
-2.0000000000000000e+01 2.0000000000000000e+01
ITEM: ATOMS id type xs ys zs
1 1 0.437181 0.544747 0.499646
5 2 0.440883 0.525596 0.479184
4 2 0.439854 0.531118 0.523441
3 2 0.413827 0.557754 0.495027
6 2 0.445963 0.598534 0.49987
7 2 0.48046 0.576665 0.47965
8 2 0.474199 0.573922 0.52628
2 1 0.461401 0.575343 0.500064
ITEM: TIMESTEP
4700
ITEM: NUMBER OF ATOMS
8
ITEM: BOX BOUNDS pp pp pp
-2.0000000000000000e+01 2.0000000000000000e+01
-2.0000000000000000e+01 2.0000000000000000e+01
-2.0000000000000000e+01 2.0000000000000000e+01
ITEM: ATOMS id type xs ys zs
1 1 0.437129 0.544399 0.500047
5 2 0.424059 0.546173 0.475601
4 2 0.448918 0.51994 0.502545
3 2 0.417384 0.550275 0.518544
6 2 0.459141 0.591791 0.478279
7 2 0.487736 0.568775 0.502006
8 2 0.454882 0.588016 0.521753
2 1 0.46171 0.575575 0.50006
ITEM: TIMESTEP
4800
ITEM: NUMBER OF ATOMS
8
ITEM: BOX BOUNDS pp pp pp
-2.0000000000000000e+01 2.0000000000000000e+01
-2.0000000000000000e+01 2.0000000000000000e+01
-2.0000000000000000e+01 2.0000000000000000e+01
ITEM: ATOMS id type xs ys zs
1 1 0.436919 0.545572 0.499495
5 2 0.412168 0.552957 0.491807
4 2 0.45038 0.526806 0.484686
3 2 0.435919 0.532267 0.523593
6 2 0.473536 0.574324 0.476174
7 2 0.481724 0.571666 0.518696
8 2 0.447572 0.599723 0.503013
2 1 0.46115 0.575008 0.500676
ITEM: TIMESTEP
4900
ITEM: NUMBER OF ATOMS
8
ITEM: BOX BOUNDS pp pp pp
-2.0000000000000000e+01 2.0000000000000000e+01
-2.0000000000000000e+01 2.0000000000000000e+01
-2.0000000000000000e+01 2.0000000000000000e+01
ITEM: ATOMS id type xs ys zs
1 1 0.436686 0.545049 0.499534
5 2 0.410892 0.552942 0.505463
4 2 0.43839 0.531731 0.475785
3 2 0.447169 0.526066 0.516184
6 2 0.483456 0.568216 0.484892
7 2 0.471357 0.580876 0.526129
8 2 0.449675 0.597495 0.490358
2 1 0.461413 0.575567 0.500566
ITEM: TIMESTEP
5000
ITEM: NUMBER OF ATOMS
8
ITEM: BOX BOUNDS pp pp pp
-2.0000000000000000e+01 2.0000000000000000e+01
-2.0000000000000000e+01 2.0000000000000000e+01
-2.0000000000000000e+01 2.0000000000000000e+01
ITEM: ATOMS id type xs ys zs
1 1 0.437816 0.545062 0.499615
5 2 0.416092 0.554086 0.513604
4 2 0.426295 0.539255 0.474604
3 2 0.449624 0.522751 0.510233
6 2 0.485492 0.567147 0.493189
7 2 0.460532 0.586085 0.525085
8 2 0.452984 0.595578 0.483628
2 1 0.461115 0.574918 0.500356
ITEM: TIMESTEP
5100
ITEM: NUMBER OF ATOMS
8
ITEM: BOX BOUNDS pp pp pp
-2.0000000000000000e+01 2.0000000000000000e+01
-2.0000000000000000e+01 2.0000000000000000e+01
-2.0000000000000000e+01 2.0000000000000000e+01
ITEM: ATOMS id type xs ys zs
1 1 0.437164 0.544498 0.499461
5 2 0.411292 0.554875 0.500937
4 2 0.43647 0.529803 0.476574
3 2 0.441261 0.529848 0.522631
6 2 0.480716 0.574936 0.479216
7 2 0.472823 0.577951 0.526244
8 2 0.447699 0.598952 0.497086
2 1 0.461832 0.575359 0.500313
ITEM: TIMESTEP
5200
ITEM: NUMBER OF ATOMS
8
ITEM: BOX BOUNDS pp pp pp
-2.0000000000000000e+01 2.0000000000000000e+01
-2.0000000000000000e+01 2.0000000000000000e+01
-2.0000000000000000e+01 2.0000000000000000e+01
ITEM: ATOMS id type xs ys zs
1 1 0.437201 0.545871 0.500186
5 2 0.414741 0.550432 0.485989
4 2 0.448968 0.527423 0.48343
3 2 0.430084 0.535672 0.524531
6 2 0.469505 0.580525 0.475503
7 2 0.482765 0.570379 0.516147
8 2 0.448862 0.596255 0.510466
2 1 0.461403 0.574463 0.500144
ITEM: TIMESTEP
5300
ITEM: NUMBER OF ATOMS
8
ITEM: BOX BOUNDS pp pp pp
-2.0000000000000000e+01 2.0000000000000000e+01
-2.0000000000000000e+01 2.0000000000000000e+01
-2.0000000000000000e+01 2.0000000000000000e+01
ITEM: ATOMS id type xs ys zs
1 1 0.437125 0.544982 0.499874
4 2 0.451569 0.521703 0.503034
3 2 0.414961 0.544977 0.517061
5 2 0.422995 0.543169 0.47536
6 2 0.458299 0.593935 0.479354
7 2 0.487389 0.565504 0.495036
8 2 0.459829 0.592039 0.522907
2 1 0.461469 0.575298 0.500734
ITEM: TIMESTEP
5400
ITEM: NUMBER OF ATOMS
8
ITEM: BOX BOUNDS pp pp pp
-2.0000000000000000e+01 2.0000000000000000e+01
-2.0000000000000000e+01 2.0000000000000000e+01
-2.0000000000000000e+01 2.0000000000000000e+01
ITEM: ATOMS id type xs ys zs
1 1 0.437776 0.545068 0.499213
4 2 0.43949 0.530825 0.52324
3 2 0.411668 0.553395 0.499598
5 2 0.4374 0.52942 0.477727
6 2 0.4496 0.599742 0.499322
7 2 0.477247 0.575061 0.47902
8 2 0.475688 0.575462 0.523587
2 1 0.461149 0.574995 0.500578
ITEM: TIMESTEP
5500
ITEM: NUMBER OF ATOMS
8
ITEM: BOX BOUNDS pp pp pp
-2.0000000000000000e+01 2.0000000000000000e+01
-2.0000000000000000e+01 2.0000000000000000e+01
-2.0000000000000000e+01 2.0000000000000000e+01
ITEM: ATOMS id type xs ys zs
1 1 0.437112 0.545215 0.499379
4 2 0.421628 0.545614 0.521457
3 2 0.417279 0.544672 0.480261
5 2 0.449322 0.520432 0.495694
6 2 0.454907 0.591873 0.520704
7 2 0.460881 0.591225 0.478137
8 2 0.488163 0.568576 0.504445
2 1 0.461722 0.574975 0.500563
ITEM: TIMESTEP
5600
ITEM: NUMBER OF ATOMS
8
ITEM: BOX BOUNDS pp pp pp
-2.0000000000000000e+01 2.0000000000000000e+01
-2.0000000000000000e+01 2.0000000000000000e+01
-2.0000000000000000e+01 2.0000000000000000e+01
ITEM: ATOMS id type xs ys zs
1 1 0.437036 0.545728 0.499708
4 2 0.409463 0.550738 0.499175
3 2 0.439192 0.531508 0.475993
5 2 0.442895 0.526622 0.51828
6 2 0.475572 0.577392 0.525338
7 2 0.449134 0.599503 0.498118
8 2 0.479907 0.574269 0.479583
2 1 0.461464 0.57466 0.500586
ITEM: TIMESTEP
5700
ITEM: NUMBER OF ATOMS
8
ITEM: BOX BOUNDS pp pp pp
-2.0000000000000000e+01 2.0000000000000000e+01
-2.0000000000000000e+01 2.0000000000000000e+01
-2.0000000000000000e+01 2.0000000000000000e+01
ITEM: ATOMS id type xs ys zs
1 1 0.437175 0.545447 0.499397
4 2 0.418035 0.546648 0.480571
3 2 0.450784 0.5229 0.491684
5 2 0.423853 0.539421 0.522924
6 2 0.485268 0.566231 0.50664
7 2 0.456946 0.59517 0.518629
8 2 0.463155 0.586302 0.476434
2 1 0.461167 0.575223 0.500864
ITEM: TIMESTEP
5800
ITEM: NUMBER OF ATOMS
8
ITEM: BOX BOUNDS pp pp pp
-2.0000000000000000e+01 2.0000000000000000e+01
-2.0000000000000000e+01 2.0000000000000000e+01
-2.0000000000000000e+01 2.0000000000000000e+01
ITEM: ATOMS id type xs ys zs
1 1 0.43759 0.545184 0.499329
4 2 0.4238 0.540644 0.475267
3 2 0.448705 0.520798 0.505719
5 2 0.416099 0.550204 0.515751
6 2 0.488159 0.567915 0.494277
7 2 0.462248 0.585912 0.526122
8 2 0.454081 0.596031 0.483401
2 1 0.461168 0.575081 0.500626
ITEM: TIMESTEP
5900
ITEM: NUMBER OF ATOMS
8
ITEM: BOX BOUNDS pp pp pp
-2.0000000000000000e+01 2.0000000000000000e+01
-2.0000000000000000e+01 2.0000000000000000e+01
-2.0000000000000000e+01 2.0000000000000000e+01
ITEM: ATOMS id type xs ys zs
1 1 0.437437 0.545362 0.499606
4 2 0.432201 0.535854 0.474903
3 2 0.445434 0.52394 0.514776
5 2 0.412498 0.553604 0.506521
6 2 0.484368 0.573824 0.486085
7 2 0.467483 0.5794 0.526908
8 2 0.448022 0.597536 0.493146
2 1 0.46158 0.57468 0.500197
ITEM: TIMESTEP
6000
ITEM: NUMBER OF ATOMS
8
ITEM: BOX BOUNDS pp pp pp
-2.0000000000000000e+01 2.0000000000000000e+01
-2.0000000000000000e+01 2.0000000000000000e+01
-2.0000000000000000e+01 2.0000000000000000e+01
ITEM: ATOMS id type xs ys zs
1 1 0.436898 0.545341 0.499435
4 2 0.4399 0.533806 0.473757
3 2 0.443448 0.526287 0.518377
5 2 0.409702 0.549059 0.504842
6 2 0.480678 0.573335 0.480824
7 2 0.473347 0.576319 0.525059
8 2 0.450041 0.598924 0.493875
2 1 0.461522 0.57524 0.500839
ITEM: TIMESTEP
6100
ITEM: NUMBER OF ATOMS
8
ITEM: BOX BOUNDS pp pp pp
-2.0000000000000000e+01 2.0000000000000000e+01
-2.0000000000000000e+01 2.0000000000000000e+01
-2.0000000000000000e+01 2.0000000000000000e+01
ITEM: ATOMS id type xs ys zs
1 1 0.437256 0.545383 0.499322
4 2 0.428333 0.544065 0.473745
3 2 0.449448 0.521274 0.505113
5 2 0.417696 0.544538 0.518612
6 2 0.486316 0.56644 0.494712
7 2 0.462691 0.585929 0.526828