
     Program PWSCF v.5.1.1 starts on  4Jul2020 at 17:31:54 

     This program is part of the open-source Quantum ESPRESSO suite
     for quantum simulation of materials; please cite
         "P. Giannozzi et al., J. Phys.:Condens. Matter 21 395502 (2009);
          URL http://www.quantum-espresso.org", 
     in publications or presentations arising from this work. More details at
     http://www.quantum-espresso.org/quote

     Parallel version (MPI), running on     1 processors
     Waiting for input...
     Reading input from standard input
Warning: card &IONS ignored
Warning: card / ignored
Warning: card &CELL ignored
Warning: card / ignored

     Current dimensions of program PWSCF are:
     Max number of different atomic species (ntypx) = 10
     Max number of k-points (npk) =  40000
     Max angular momentum in pseudopotentials (lmaxx) =  3

     gamma-point specific algorithms are used

     Subspace diagonalization in iterative solution of the eigenvalue problem:
     a serial algorithm will be used


     G-vector sticks info
     --------------------
     sticks:   dense  smooth     PW     G-vecs:    dense   smooth      PW
     Sum        5689    5689   1433               322453   322453   40339
     Tot        2845    2845    717



     bravais-lattice index     =            1
     lattice parameter (alat)  =      18.8973  a.u.
     unit-cell volume          =    6748.3346 (a.u.)^3
     number of atoms/cell      =            8
     number of atomic types    =            2
     number of electrons       =        14.00
     number of Kohn-Sham states=            7
     kinetic-energy cutoff     =      50.0000  Ry
     charge density cutoff     =     200.0000  Ry
     convergence threshold     =      1.0E-06
     mixing beta               =       0.2000
     number of iterations used =            8  plain     mixing
     Exchange-correlation      = PBE ( 1  4  3  4 0 0)

     celldm(1)=  18.897261  celldm(2)=   0.000000  celldm(3)=   0.000000
     celldm(4)=   0.000000  celldm(5)=   0.000000  celldm(6)=   0.000000

     crystal axes: (cart. coord. in units of alat)
               a(1) = (   1.000000   0.000000   0.000000 )  
               a(2) = (   0.000000   1.000000   0.000000 )  
               a(3) = (   0.000000   0.000000   1.000000 )  

     reciprocal axes: (cart. coord. in units 2 pi/alat)
               b(1) = (  1.000000  0.000000  0.000000 )  
               b(2) = (  0.000000  1.000000  0.000000 )  
               b(3) = (  0.000000  0.000000  1.000000 )  


     PseudoPot. # 1 for C  read from file:
     ../../pseudo-potentials/C_ONCV_PBE-1.0.upf
     MD5 check sum: 40f8c33130f0afa4272e9dcc1c4fb0df
     Pseudo is Norm-conserving, Zval =  4.0
     Generated using ONCVPSP code by D. R. Hamann
     Using radial grid of  602 points,  4 beta functions with: 
                l(1) =   0
                l(2) =   0
                l(3) =   1
                l(4) =   1

     PseudoPot. # 2 for H  read from file:
     ../../pseudo-potentials/H_ONCV_PBE-1.0.upf
     MD5 check sum: 10f92816c437af099bca1a183851adc8
     Pseudo is Norm-conserving, Zval =  1.0
     Generated using ONCVPSP code by D. R. Hamann
     Using radial grid of  602 points,  2 beta functions with: 
                l(1) =   0
                l(2) =   0

     atomic species   valence    mass     pseudopotential
        C              4.00     1.00000     C ( 1.00)
        H              1.00     1.00000     H ( 1.00)

     No symmetry found



   Cartesian axes

     site n.     atom                  positions (alat units)
         1           C   tau(   1) = (   1.7484520   2.1815880   1.9930680  )
         2           C   tau(   2) = (   1.8458000   2.3002200   2.0074560  )
         3           H   tau(   3) = (   1.7537600   2.1252440   1.9020560  )
         4           H   tau(   4) = (   1.6460680   2.2125760   1.9868120  )
         5           H   tau(   5) = (   1.7608520   2.1135400   2.0749480  )
         6           H   tau(   6) = (   1.8128560   2.3889800   1.9477560  )
         7           H   tau(   7) = (   1.9427560   2.2596160   1.9720920  )
         8           H   tau(   8) = (   1.8653400   2.3371240   2.1101080  )

     number of k points=     1
                       cart. coord. in units 2pi/alat
        k(    1) = (   0.0000000   0.0000000   0.0000000), wk =   2.0000000

     Dense  grid:   161227 G-vectors     FFT dimensions: (  90,  90,  90)

     Largest allocated arrays     est. size (Mb)     dimensions
        Kohn-Sham Wavefunctions         2.15 Mb     (   20170,    7)
        NL pseudopotentials             8.62 Mb     (   20170,   28)
        Each V/rho on FFT grid         11.12 Mb     (  729000)
        Each G-vector array             1.23 Mb     (  161227)
        G-vector shells                 0.01 Mb     (    1510)
     Largest temporary arrays     est. size (Mb)     dimensions
        Auxiliary wavefunctions         4.31 Mb     (   20170,   28)
        Each subspace H/S matrix        0.01 Mb     (      28,   28)
        Each <psi_i|beta_j> matrix      0.00 Mb     (      28,    7)
        Arrays for rho mixing          88.99 Mb     (  729000,    8)

     Initial potential from superposition of free atoms
     Check: negative starting charge=   -0.000635

     starting charge   13.97327, renormalised to   14.00000

     negative rho (up, down):  6.362E-04 0.000E+00
     Starting wfc are random

     total cpu time spent up to now is        2.3 secs

     per-process dynamical memory:   141.6 Mb

     Self-consistent Calculation

     iteration #  1     ecut=    50.00 Ry     beta=0.20
     Davidson diagonalization with overlap
     ethr =  1.00E-02,  avg # of iterations =  9.0

     negative rho (up, down):  4.486E-04 0.000E+00

     total cpu time spent up to now is        5.5 secs

     total energy              =     -30.01460725 Ry
     Harris-Foulkes estimate   =     -30.25501095 Ry
     estimated scf accuracy    <       0.94156650 Ry

     iteration #  2     ecut=    50.00 Ry     beta=0.20
     Davidson diagonalization with overlap
     ethr =  6.73E-03,  avg # of iterations =  1.0

     negative rho (up, down):  1.319E-04 0.000E+00

     total cpu time spent up to now is        7.3 secs

     total energy              =     -29.79377678 Ry
     Harris-Foulkes estimate   =     -30.03970549 Ry
     estimated scf accuracy    <       0.42223781 Ry

     iteration #  3     ecut=    50.00 Ry     beta=0.20
     Davidson diagonalization with overlap
     ethr =  3.02E-03,  avg # of iterations =  2.0

     negative rho (up, down):  1.652E-04 0.000E+00

     total cpu time spent up to now is        9.3 secs

     total energy              =     -29.95492896 Ry
     Harris-Foulkes estimate   =     -29.91976865 Ry
     estimated scf accuracy    <       0.08306971 Ry

     iteration #  4     ecut=    50.00 Ry     beta=0.20
     Davidson diagonalization with overlap
     ethr =  5.93E-04,  avg # of iterations =  2.0

     negative rho (up, down):  2.949E-05 0.000E+00

     total cpu time spent up to now is       11.3 secs

     total energy              =     -29.87091847 Ry
     Harris-Foulkes estimate   =     -29.96466488 Ry
     estimated scf accuracy    <       0.23002041 Ry

     iteration #  5     ecut=    50.00 Ry     beta=0.20
     Davidson diagonalization with overlap
     ethr =  5.93E-04,  avg # of iterations =  2.0

     negative rho (up, down):  5.445E-06 0.000E+00

     total cpu time spent up to now is       13.3 secs

     total energy              =     -29.89136920 Ry
     Harris-Foulkes estimate   =     -29.89604397 Ry
     estimated scf accuracy    <       0.01385535 Ry

     iteration #  6     ecut=    50.00 Ry     beta=0.20
     Davidson diagonalization with overlap
     ethr =  9.90E-05,  avg # of iterations =  1.0

     negative rho (up, down):  3.034E-06 0.000E+00

     total cpu time spent up to now is       15.2 secs

     total energy              =     -29.89125018 Ry
     Harris-Foulkes estimate   =     -29.89239001 Ry
     estimated scf accuracy    <       0.00276992 Ry

     iteration #  7     ecut=    50.00 Ry     beta=0.20
     Davidson diagonalization with overlap
     ethr =  1.98E-05,  avg # of iterations =  3.0

     negative rho (up, down):  4.902E-08 0.000E+00

     total cpu time spent up to now is       17.3 secs

     total energy              =     -29.89207749 Ry
     Harris-Foulkes estimate   =     -29.89222523 Ry
     estimated scf accuracy    <       0.00035153 Ry

     iteration #  8     ecut=    50.00 Ry     beta=0.20
     Davidson diagonalization with overlap
     ethr =  2.51E-06,  avg # of iterations =  2.0

     negative rho (up, down):  4.492E-08 0.000E+00

     total cpu time spent up to now is       19.2 secs

     total energy              =     -29.89213257 Ry
     Harris-Foulkes estimate   =     -29.89213145 Ry
     estimated scf accuracy    <       0.00001241 Ry

     iteration #  9     ecut=    50.00 Ry     beta=0.20
     Davidson diagonalization with overlap
     ethr =  8.86E-08,  avg # of iterations =  2.0

     total cpu time spent up to now is       21.2 secs

     total energy              =     -29.89213344 Ry
     Harris-Foulkes estimate   =     -29.89213521 Ry
     estimated scf accuracy    <       0.00000917 Ry

     iteration # 10     ecut=    50.00 Ry     beta=0.20
     Davidson diagonalization with overlap
     ethr =  6.55E-08,  avg # of iterations =  2.0

     total cpu time spent up to now is       23.1 secs

     total energy              =     -29.89213378 Ry
     Harris-Foulkes estimate   =     -29.89213541 Ry
     estimated scf accuracy    <       0.00000598 Ry

     iteration # 11     ecut=    50.00 Ry     beta=0.20
     Davidson diagonalization with overlap
     ethr =  4.27E-08,  avg # of iterations =  1.0

     total cpu time spent up to now is       24.8 secs

     total energy              =     -29.89213304 Ry
     Harris-Foulkes estimate   =     -29.89213400 Ry
     estimated scf accuracy    <       0.00000213 Ry

     iteration # 12     ecut=    50.00 Ry     beta=0.20
     Davidson diagonalization with overlap
     ethr =  1.52E-08,  avg # of iterations =  2.0

     total cpu time spent up to now is       26.4 secs

     End of self-consistent calculation

          k = 0.0000 0.0000 0.0000 ( 20170 PWs)   bands (ev):

   -18.2338 -14.8803 -10.3793 -10.0065  -8.8171  -7.9856  -7.4915

     highest occupied level (ev):    -7.4915

!    total energy              =     -29.89213351 Ry
     Harris-Foulkes estimate   =     -29.89213353 Ry
     estimated scf accuracy    <       0.00000002 Ry

     The total energy is the sum of the following terms:

     one-electron contribution =     -88.62623308 Ry
     hartree contribution      =      45.92423598 Ry
     xc contribution           =     -11.31364376 Ry
     ewald contribution        =      24.12350735 Ry

     convergence has been achieved in  12 iterations

     Forces acting on atoms (Ry/au):

     atom    1 type  1   force =    -0.00177061    0.03916398    0.01555131
     atom    2 type  1   force =     0.01014354   -0.01060060   -0.02576979
     atom    3 type  2   force =     0.03353624   -0.01361454   -0.03266838
     atom    4 type  2   force =    -0.03724253    0.01825101    0.02253982
     atom    5 type  2   force =    -0.00199886   -0.02326422    0.02328006
     atom    6 type  2   force =     0.01646908   -0.02300107    0.00584072
     atom    7 type  2   force =    -0.00167046    0.02688296   -0.00278567
     atom    8 type  2   force =    -0.01746639   -0.01381751   -0.00598806

     Total force =     0.102226     Total SCF correction =     0.000165


     entering subroutine stress ...

          total   stress  (Ry/bohr**3)                   (kbar)     P=   -1.84
  -0.00000580  -0.00000204  -0.00001555         -0.85     -0.30     -2.29
  -0.00000204  -0.00002448  -0.00000564         -0.30     -3.60     -0.83
  -0.00001555  -0.00000564  -0.00000722         -2.29     -0.83     -1.06


     init_run     :      2.19s CPU      2.27s WALL (       1 calls)
     electrons    :     23.71s CPU     24.09s WALL (       1 calls)
     forces       :      0.91s CPU      0.91s WALL (       1 calls)
     stress       :      1.16s CPU      1.21s WALL (       1 calls)

     Called by init_run:
     wfcinit      :      0.31s CPU      0.32s WALL (       1 calls)
     potinit      :      1.52s CPU      1.56s WALL (       1 calls)

     Called by electrons:
     c_bands      :      7.58s CPU      7.68s WALL (      12 calls)
     sum_band     :      1.95s CPU      1.96s WALL (      12 calls)
     v_of_rho     :     14.27s CPU     14.49s WALL (      13 calls)
     mix_rho      :      1.04s CPU      1.09s WALL (      12 calls)

     Called by c_bands:
     init_us_2    :      0.32s CPU      0.33s WALL (      25 calls)
     regterg      :      6.98s CPU      7.08s WALL (      12 calls)

     Called by *egterg:
     h_psi        :      6.82s CPU      6.92s WALL (      42 calls)
     g_psi        :      0.08s CPU      0.08s WALL (      29 calls)
     rdiaghg      :      0.01s CPU      0.01s WALL (      41 calls)

     Called by h_psi:
     add_vuspsi   :      0.10s CPU      0.10s WALL (      42 calls)

     General routines
     calbec       :      0.13s CPU      0.13s WALL (      47 calls)
     fft          :      3.83s CPU      3.93s WALL (     150 calls)
     fftw         :      6.09s CPU      6.15s WALL (     354 calls)

     Parallel routines
     fft_scatter  :      2.44s CPU      2.49s WALL (     504 calls)

     PWSCF        :    28.00s CPU        28.52s WALL


   This run was terminated on:  17:32:23   4Jul2020            

=------------------------------------------------------------------------------=
   JOB DONE.
=------------------------------------------------------------------------------=
