
     Program PWSCF v.5.1.1 starts on  4Jul2020 at 17:32:31 

     This program is part of the open-source Quantum ESPRESSO suite
     for quantum simulation of materials; please cite
         "P. Giannozzi et al., J. Phys.:Condens. Matter 21 395502 (2009);
          URL http://www.quantum-espresso.org", 
     in publications or presentations arising from this work. More details at
     http://www.quantum-espresso.org/quote

     Parallel version (MPI), running on     1 processors
     Waiting for input...
     Reading input from standard input
Warning: card &IONS ignored
Warning: card / ignored
Warning: card &CELL ignored
Warning: card / ignored

     Current dimensions of program PWSCF are:
     Max number of different atomic species (ntypx) = 10
     Max number of k-points (npk) =  40000
     Max angular momentum in pseudopotentials (lmaxx) =  3

     gamma-point specific algorithms are used

     Subspace diagonalization in iterative solution of the eigenvalue problem:
     a serial algorithm will be used


     G-vector sticks info
     --------------------
     sticks:   dense  smooth     PW     G-vecs:    dense   smooth      PW
     Sum        5689    5689   1433               322453   322453   40339
     Tot        2845    2845    717



     bravais-lattice index     =            1
     lattice parameter (alat)  =      18.8973  a.u.
     unit-cell volume          =    6748.3346 (a.u.)^3
     number of atoms/cell      =            8
     number of atomic types    =            2
     number of electrons       =        14.00
     number of Kohn-Sham states=            7
     kinetic-energy cutoff     =      50.0000  Ry
     charge density cutoff     =     200.0000  Ry
     convergence threshold     =      1.0E-06
     mixing beta               =       0.2000
     number of iterations used =            8  plain     mixing
     Exchange-correlation      = PBE ( 1  4  3  4 0 0)

     celldm(1)=  18.897261  celldm(2)=   0.000000  celldm(3)=   0.000000
     celldm(4)=   0.000000  celldm(5)=   0.000000  celldm(6)=   0.000000

     crystal axes: (cart. coord. in units of alat)
               a(1) = (   1.000000   0.000000   0.000000 )  
               a(2) = (   0.000000   1.000000   0.000000 )  
               a(3) = (   0.000000   0.000000   1.000000 )  

     reciprocal axes: (cart. coord. in units 2 pi/alat)
               b(1) = (  1.000000  0.000000  0.000000 )  
               b(2) = (  0.000000  1.000000  0.000000 )  
               b(3) = (  0.000000  0.000000  1.000000 )  


     PseudoPot. # 1 for C  read from file:
     ../../pseudo-potentials/C_ONCV_PBE-1.0.upf
     MD5 check sum: 40f8c33130f0afa4272e9dcc1c4fb0df
     Pseudo is Norm-conserving, Zval =  4.0
     Generated using ONCVPSP code by D. R. Hamann
     Using radial grid of  602 points,  4 beta functions with: 
                l(1) =   0
                l(2) =   0
                l(3) =   1
                l(4) =   1

     PseudoPot. # 2 for H  read from file:
     ../../pseudo-potentials/H_ONCV_PBE-1.0.upf
     MD5 check sum: 10f92816c437af099bca1a183851adc8
     Pseudo is Norm-conserving, Zval =  1.0
     Generated using ONCVPSP code by D. R. Hamann
     Using radial grid of  602 points,  2 beta functions with: 
                l(1) =   0
                l(2) =   0

     atomic species   valence    mass     pseudopotential
        C              4.00     1.00000     C ( 1.00)
        H              1.00     1.00000     H ( 1.00)

     No symmetry found



   Cartesian axes

     site n.     atom                  positions (alat units)
         1           C   tau(   1) = (   1.7390000   2.1870160   1.9893440  )
         2           C   tau(   2) = (   1.8559400   2.2924120   2.0105920  )
         3           H   tau(   3) = (   1.7746280   2.0847440   1.9969760  )
         4           H   tau(   4) = (   1.7009760   2.2130000   1.8874240  )
         5           H   tau(   5) = (   1.6571480   2.1957120   2.0595480  )
         6           H   tau(   6) = (   1.9498120   2.2531920   2.0523120  )
         7           H   tau(   7) = (   1.8148800   2.3642880   2.0809640  )
         8           H   tau(   8) = (   1.8760000   2.3545160   1.9235080  )

     number of k points=     1
                       cart. coord. in units 2pi/alat
        k(    1) = (   0.0000000   0.0000000   0.0000000), wk =   2.0000000

     Dense  grid:   161227 G-vectors     FFT dimensions: (  90,  90,  90)

     Largest allocated arrays     est. size (Mb)     dimensions
        Kohn-Sham Wavefunctions         2.15 Mb     (   20170,    7)
        NL pseudopotentials             8.62 Mb     (   20170,   28)
        Each V/rho on FFT grid         11.12 Mb     (  729000)
        Each G-vector array             1.23 Mb     (  161227)
        G-vector shells                 0.01 Mb     (    1510)
     Largest temporary arrays     est. size (Mb)     dimensions
        Auxiliary wavefunctions         4.31 Mb     (   20170,   28)
        Each subspace H/S matrix        0.01 Mb     (      28,   28)
        Each <psi_i|beta_j> matrix      0.00 Mb     (      28,    7)
        Arrays for rho mixing          88.99 Mb     (  729000,    8)

     Initial potential from superposition of free atoms
     Check: negative starting charge=   -0.000635

     starting charge   13.97327, renormalised to   14.00000

     negative rho (up, down):  6.358E-04 0.000E+00
     Starting wfc are random

     total cpu time spent up to now is        2.1 secs

     per-process dynamical memory:   141.6 Mb

     Self-consistent Calculation

     iteration #  1     ecut=    50.00 Ry     beta=0.20
     Davidson diagonalization with overlap
     ethr =  1.00E-02,  avg # of iterations =  9.0

     negative rho (up, down):  4.406E-04 0.000E+00

     total cpu time spent up to now is        6.0 secs

     total energy              =     -30.00409357 Ry
     Harris-Foulkes estimate   =     -30.24059606 Ry
     estimated scf accuracy    <       0.92609024 Ry

     iteration #  2     ecut=    50.00 Ry     beta=0.20
     Davidson diagonalization with overlap
     ethr =  6.61E-03,  avg # of iterations =  1.0

     negative rho (up, down):  1.390E-04 0.000E+00

     total cpu time spent up to now is        8.1 secs

     total energy              =     -29.79987205 Ry
     Harris-Foulkes estimate   =     -30.02936392 Ry
     estimated scf accuracy    <       0.40512935 Ry

     iteration #  3     ecut=    50.00 Ry     beta=0.20
     Davidson diagonalization with overlap
     ethr =  2.89E-03,  avg # of iterations =  2.0

     negative rho (up, down):  1.985E-04 0.000E+00

     total cpu time spent up to now is       10.3 secs

     total energy              =     -29.94995232 Ry
     Harris-Foulkes estimate   =     -29.91129231 Ry
     estimated scf accuracy    <       0.07204841 Ry

     iteration #  4     ecut=    50.00 Ry     beta=0.20
     Davidson diagonalization with overlap
     ethr =  5.15E-04,  avg # of iterations =  2.0

     negative rho (up, down):  1.611E-05 0.000E+00

     total cpu time spent up to now is       12.5 secs

     total energy              =     -29.86095688 Ry
     Harris-Foulkes estimate   =     -29.96215613 Ry
     estimated scf accuracy    <       0.23854611 Ry

     iteration #  5     ecut=    50.00 Ry     beta=0.20
     Davidson diagonalization with overlap
     ethr =  5.15E-04,  avg # of iterations =  2.0

     negative rho (up, down):  2.140E-06 0.000E+00

     total cpu time spent up to now is       14.8 secs

     total energy              =     -29.88651217 Ry
     Harris-Foulkes estimate   =     -29.88919237 Ry
     estimated scf accuracy    <       0.00878030 Ry

     iteration #  6     ecut=    50.00 Ry     beta=0.20
     Davidson diagonalization with overlap
     ethr =  6.27E-05,  avg # of iterations =  1.0

     negative rho (up, down):  6.305E-07 0.000E+00

     total cpu time spent up to now is       16.8 secs

     total energy              =     -29.88583866 Ry
     Harris-Foulkes estimate   =     -29.88710800 Ry
     estimated scf accuracy    <       0.00251317 Ry

     iteration #  7     ecut=    50.00 Ry     beta=0.20
     Davidson diagonalization with overlap
     ethr =  1.80E-05,  avg # of iterations =  3.0

     negative rho (up, down):  2.860E-08 0.000E+00

     total cpu time spent up to now is       19.1 secs

     total energy              =     -29.88676304 Ry
     Harris-Foulkes estimate   =     -29.88687777 Ry
     estimated scf accuracy    <       0.00023577 Ry

     iteration #  8     ecut=    50.00 Ry     beta=0.20
     Davidson diagonalization with overlap
     ethr =  1.68E-06,  avg # of iterations =  2.0

     negative rho (up, down):  3.013E-08 0.000E+00

     total cpu time spent up to now is       21.3 secs

     total energy              =     -29.88682207 Ry
     Harris-Foulkes estimate   =     -29.88682521 Ry
     estimated scf accuracy    <       0.00001152 Ry

     iteration #  9     ecut=    50.00 Ry     beta=0.20
     Davidson diagonalization with overlap
     ethr =  8.23E-08,  avg # of iterations =  2.0

     total cpu time spent up to now is       23.5 secs

     total energy              =     -29.88682565 Ry
     Harris-Foulkes estimate   =     -29.88682547 Ry
     estimated scf accuracy    <       0.00000301 Ry

     iteration # 10     ecut=    50.00 Ry     beta=0.20
     Davidson diagonalization with overlap
     ethr =  2.15E-08,  avg # of iterations =  2.0

     total cpu time spent up to now is       25.5 secs

     total energy              =     -29.88682504 Ry
     Harris-Foulkes estimate   =     -29.88682655 Ry
     estimated scf accuracy    <       0.00000365 Ry

     iteration # 11     ecut=    50.00 Ry     beta=0.20
     Davidson diagonalization with overlap
     ethr =  2.15E-08,  avg # of iterations =  2.0

     total cpu time spent up to now is       27.0 secs

     End of self-consistent calculation

          k = 0.0000 0.0000 0.0000 ( 20170 PWs)   bands (ev):

   -18.0444 -14.8482 -10.3103 -10.0281  -8.5574  -8.0967  -7.4818

     highest occupied level (ev):    -7.4818

!    total energy              =     -29.88682528 Ry
     Harris-Foulkes estimate   =     -29.88682536 Ry
     estimated scf accuracy    <       0.00000017 Ry

     The total energy is the sum of the following terms:

     one-electron contribution =     -87.69508605 Ry
     hartree contribution      =      45.46712081 Ry
     xc contribution           =     -11.27783720 Ry
     ewald contribution        =      23.61897716 Ry

     convergence has been achieved in  11 iterations

     Forces acting on atoms (Ry/au):

     atom    1 type  1   force =     0.04646581    0.04677448   -0.04732053
     atom    2 type  1   force =    -0.04592986   -0.01423017    0.02924085
     atom    3 type  2   force =     0.00410664   -0.01223008   -0.01477654
     atom    4 type  2   force =    -0.00447005   -0.03110742    0.02138054
     atom    5 type  2   force =    -0.00831656    0.01254604    0.01477594
     atom    6 type  2   force =    -0.00735273   -0.00347634   -0.00522482
     atom    7 type  2   force =     0.00843249    0.01350145    0.02039676
     atom    8 type  2   force =     0.00706426   -0.01177796   -0.01847221

     Total force =     0.115414     Total SCF correction =     0.000391


     entering subroutine stress ...

          total   stress  (Ry/bohr**3)                   (kbar)     P=   -2.78
  -0.00002788  -0.00000821  -0.00000328         -4.10     -1.21     -0.48
  -0.00000821  -0.00001802   0.00001549         -1.21     -2.65      2.28
  -0.00000328   0.00001549  -0.00001079         -0.48      2.28     -1.59


     init_run     :      2.01s CPU      2.08s WALL (       1 calls)
     electrons    :     24.57s CPU     24.92s WALL (       1 calls)
     forces       :      0.92s CPU      0.93s WALL (       1 calls)
     stress       :      1.13s CPU      1.17s WALL (       1 calls)

     Called by init_run:
     wfcinit      :      0.26s CPU      0.27s WALL (       1 calls)
     potinit      :      1.40s CPU      1.44s WALL (       1 calls)

     Called by electrons:
     c_bands      :      8.67s CPU      8.75s WALL (      11 calls)
     sum_band     :      2.47s CPU      2.49s WALL (      11 calls)
     v_of_rho     :     12.93s CPU     13.13s WALL (      12 calls)
     mix_rho      :      1.50s CPU      1.57s WALL (      11 calls)

     Called by c_bands:
     init_us_2    :      0.31s CPU      0.32s WALL (      23 calls)
     regterg      :      8.12s CPU      8.19s WALL (      11 calls)

     Called by *egterg:
     h_psi        :      7.85s CPU      7.91s WALL (      40 calls)
     g_psi        :      0.08s CPU      0.08s WALL (      28 calls)
     rdiaghg      :      0.01s CPU      0.01s WALL (      39 calls)

     Called by h_psi:
     add_vuspsi   :      0.13s CPU      0.13s WALL (      40 calls)

     General routines
     calbec       :      0.16s CPU      0.16s WALL (      45 calls)
     fft          :      3.77s CPU      3.86s WALL (     139 calls)
     fftw         :      6.72s CPU      6.76s WALL (     338 calls)

     Parallel routines
     fft_scatter  :      2.83s CPU      2.87s WALL (     477 calls)

     PWSCF        :    28.67s CPU        29.14s WALL


   This run was terminated on:  17:33: 0   4Jul2020            

=------------------------------------------------------------------------------=
   JOB DONE.
=------------------------------------------------------------------------------=
