
     Program PWSCF v.5.1.1 starts on  4Jul2020 at 16:12:16 

     This program is part of the open-source Quantum ESPRESSO suite
     for quantum simulation of materials; please cite
         "P. Giannozzi et al., J. Phys.:Condens. Matter 21 395502 (2009);
          URL http://www.quantum-espresso.org", 
     in publications or presentations arising from this work. More details at
     http://www.quantum-espresso.org/quote

     Parallel version (MPI), running on     1 processors
     Waiting for input...
     Reading input from standard input
Warning: card &IONS ignored
Warning: card / ignored
Warning: card &CELL ignored
Warning: card / ignored

     Current dimensions of program PWSCF are:
     Max number of different atomic species (ntypx) = 10
     Max number of k-points (npk) =  40000
     Max angular momentum in pseudopotentials (lmaxx) =  3

     gamma-point specific algorithms are used

     Subspace diagonalization in iterative solution of the eigenvalue problem:
     a serial algorithm will be used


     G-vector sticks info
     --------------------
     sticks:   dense  smooth     PW     G-vecs:    dense   smooth      PW
     Sum        5689    5689   1433               322453   322453   40339
     Tot        2845    2845    717



     bravais-lattice index     =            1
     lattice parameter (alat)  =      18.8973  a.u.
     unit-cell volume          =    6748.3346 (a.u.)^3
     number of atoms/cell      =            8
     number of atomic types    =            2
     number of electrons       =        14.00
     number of Kohn-Sham states=            7
     kinetic-energy cutoff     =      50.0000  Ry
     charge density cutoff     =     200.0000  Ry
     convergence threshold     =      1.0E-06
     mixing beta               =       0.2000
     number of iterations used =            8  plain     mixing
     Exchange-correlation      = PBE ( 1  4  3  4 0 0)

     celldm(1)=  18.897261  celldm(2)=   0.000000  celldm(3)=   0.000000
     celldm(4)=   0.000000  celldm(5)=   0.000000  celldm(6)=   0.000000

     crystal axes: (cart. coord. in units of alat)
               a(1) = (   1.000000   0.000000   0.000000 )  
               a(2) = (   0.000000   1.000000   0.000000 )  
               a(3) = (   0.000000   0.000000   1.000000 )  

     reciprocal axes: (cart. coord. in units 2 pi/alat)
               b(1) = (  1.000000  0.000000  0.000000 )  
               b(2) = (  0.000000  1.000000  0.000000 )  
               b(3) = (  0.000000  0.000000  1.000000 )  


     PseudoPot. # 1 for C  read from file:
     ../../pseudo-potentials/C_ONCV_PBE-1.0.upf
     MD5 check sum: 40f8c33130f0afa4272e9dcc1c4fb0df
     Pseudo is Norm-conserving, Zval =  4.0
     Generated using ONCVPSP code by D. R. Hamann
     Using radial grid of  602 points,  4 beta functions with: 
                l(1) =   0
                l(2) =   0
                l(3) =   1
                l(4) =   1

     PseudoPot. # 2 for H  read from file:
     ../../pseudo-potentials/H_ONCV_PBE-1.0.upf
     MD5 check sum: 10f92816c437af099bca1a183851adc8
     Pseudo is Norm-conserving, Zval =  1.0
     Generated using ONCVPSP code by D. R. Hamann
     Using radial grid of  602 points,  2 beta functions with: 
                l(1) =   0
                l(2) =   0

     atomic species   valence    mass     pseudopotential
        C              4.00     1.00000     C ( 1.00)
        H              1.00     1.00000     H ( 1.00)

     No symmetry found



   Cartesian axes

     site n.     atom                  positions (alat units)
         1           C   tau(   1) = (   1.7467720   2.1833800   2.0028960  )
         2           C   tau(   2) = (   1.8473760   2.2975880   1.9979240  )
         3           H   tau(   3) = (   1.7087160   2.1581120   1.9029840  )
         4           H   tau(   4) = (   1.6625520   2.2092160   2.0698600  )
         5           H   tau(   5) = (   1.7917280   2.0924440   2.0378360  )
         6           H   tau(   6) = (   1.9385000   2.2740600   2.0424160  )
         7           H   tau(   7) = (   1.8130840   2.3880600   2.0431880  )
         8           H   tau(   8) = (   1.8683040   2.3252320   1.8939480  )

     number of k points=     1
                       cart. coord. in units 2pi/alat
        k(    1) = (   0.0000000   0.0000000   0.0000000), wk =   2.0000000

     Dense  grid:   161227 G-vectors     FFT dimensions: (  90,  90,  90)

     Largest allocated arrays     est. size (Mb)     dimensions
        Kohn-Sham Wavefunctions         2.15 Mb     (   20170,    7)
        NL pseudopotentials             8.62 Mb     (   20170,   28)
        Each V/rho on FFT grid         11.12 Mb     (  729000)
        Each G-vector array             1.23 Mb     (  161227)
        G-vector shells                 0.01 Mb     (    1510)
     Largest temporary arrays     est. size (Mb)     dimensions
        Auxiliary wavefunctions         4.31 Mb     (   20170,   28)
        Each subspace H/S matrix        0.01 Mb     (      28,   28)
        Each <psi_i|beta_j> matrix      0.00 Mb     (      28,    7)
        Arrays for rho mixing          88.99 Mb     (  729000,    8)

     Initial potential from superposition of free atoms
     Check: negative starting charge=   -0.000641

     starting charge   13.97327, renormalised to   14.00000

     negative rho (up, down):  6.424E-04 0.000E+00
     Starting wfc are random

     total cpu time spent up to now is        2.1 secs

     per-process dynamical memory:   141.6 Mb

     Self-consistent Calculation

     iteration #  1     ecut=    50.00 Ry     beta=0.20
     Davidson diagonalization with overlap
     ethr =  1.00E-02,  avg # of iterations =  9.0

     negative rho (up, down):  4.324E-04 0.000E+00

     total cpu time spent up to now is        5.5 secs

     total energy              =     -30.02313293 Ry
     Harris-Foulkes estimate   =     -30.27794690 Ry
     estimated scf accuracy    <       0.99218916 Ry

     iteration #  2     ecut=    50.00 Ry     beta=0.20
     Davidson diagonalization with overlap
     ethr =  7.09E-03,  avg # of iterations =  1.0

     negative rho (up, down):  1.294E-04 0.000E+00

     total cpu time spent up to now is        7.4 secs

     total energy              =     -29.78985801 Ry
     Harris-Foulkes estimate   =     -30.04959515 Ry
     estimated scf accuracy    <       0.44503711 Ry

     iteration #  3     ecut=    50.00 Ry     beta=0.20
     Davidson diagonalization with overlap
     ethr =  3.18E-03,  avg # of iterations =  2.0

     negative rho (up, down):  1.676E-04 0.000E+00

     total cpu time spent up to now is        9.4 secs

     total energy              =     -29.96540960 Ry
     Harris-Foulkes estimate   =     -29.92165137 Ry
     estimated scf accuracy    <       0.08567289 Ry

     iteration #  4     ecut=    50.00 Ry     beta=0.20
     Davidson diagonalization with overlap
     ethr =  6.12E-04,  avg # of iterations =  2.0

     negative rho (up, down):  2.142E-05 0.000E+00

     total cpu time spent up to now is       11.4 secs

     total energy              =     -29.86519844 Ry
     Harris-Foulkes estimate   =     -29.97825318 Ry
     estimated scf accuracy    <       0.26920252 Ry

     iteration #  5     ecut=    50.00 Ry     beta=0.20
     Davidson diagonalization with overlap
     ethr =  6.12E-04,  avg # of iterations =  2.0

     negative rho (up, down):  3.384E-06 0.000E+00

     total cpu time spent up to now is       13.4 secs

     total energy              =     -29.89214168 Ry
     Harris-Foulkes estimate   =     -29.89634735 Ry
     estimated scf accuracy    <       0.01241791 Ry

     iteration #  6     ecut=    50.00 Ry     beta=0.20
     Davidson diagonalization with overlap
     ethr =  8.87E-05,  avg # of iterations =  1.0

     negative rho (up, down):  1.518E-06 0.000E+00

     total cpu time spent up to now is       15.3 secs

     total energy              =     -29.89183219 Ry
     Harris-Foulkes estimate   =     -29.89311902 Ry
     estimated scf accuracy    <       0.00260573 Ry

     iteration #  7     ecut=    50.00 Ry     beta=0.20
     Davidson diagonalization with overlap
     ethr =  1.86E-05,  avg # of iterations =  3.0

     negative rho (up, down):  9.960E-08 0.000E+00

     total cpu time spent up to now is       17.5 secs

     total energy              =     -29.89284070 Ry
     Harris-Foulkes estimate   =     -29.89299473 Ry
     estimated scf accuracy    <       0.00032254 Ry

     iteration #  8     ecut=    50.00 Ry     beta=0.20
     Davidson diagonalization with overlap
     ethr =  2.30E-06,  avg # of iterations =  2.0

     negative rho (up, down):  1.018E-08 0.000E+00

     total cpu time spent up to now is       19.5 secs

     total energy              =     -29.89290788 Ry
     Harris-Foulkes estimate   =     -29.89290472 Ry
     estimated scf accuracy    <       0.00000593 Ry

     iteration #  9     ecut=    50.00 Ry     beta=0.20
     Davidson diagonalization with overlap
     ethr =  4.24E-08,  avg # of iterations =  2.0

     total cpu time spent up to now is       21.6 secs

     total energy              =     -29.89290887 Ry
     Harris-Foulkes estimate   =     -29.89291025 Ry
     estimated scf accuracy    <       0.00000921 Ry

     iteration # 10     ecut=    50.00 Ry     beta=0.20
     Davidson diagonalization with overlap
     ethr =  4.24E-08,  avg # of iterations =  2.0

     total cpu time spent up to now is       23.5 secs

     total energy              =     -29.89290785 Ry
     Harris-Foulkes estimate   =     -29.89290937 Ry
     estimated scf accuracy    <       0.00000439 Ry

     iteration # 11     ecut=    50.00 Ry     beta=0.20
     Davidson diagonalization with overlap
     ethr =  3.13E-08,  avg # of iterations =  2.0

     total cpu time spent up to now is       25.1 secs

     End of self-consistent calculation

          k = 0.0000 0.0000 0.0000 ( 20170 PWs)   bands (ev):

   -18.3504 -14.8962 -10.3607 -10.2427  -8.7127  -7.8747  -7.7040

     highest occupied level (ev):    -7.7040

!    total energy              =     -29.89290790 Ry
     Harris-Foulkes estimate   =     -29.89290831 Ry
     estimated scf accuracy    <       0.00000053 Ry

     The total energy is the sum of the following terms:

     one-electron contribution =     -89.69021947 Ry
     hartree contribution      =      46.47770127 Ry
     xc contribution           =     -11.38054449 Ry
     ewald contribution        =      24.70015479 Ry

     convergence has been achieved in  11 iterations

     Forces acting on atoms (Ry/au):

     atom    1 type  1   force =    -0.02208160    0.01780931   -0.00211469
     atom    2 type  1   force =    -0.04095433    0.00447784   -0.05989016
     atom    3 type  2   force =    -0.00887072    0.00770601    0.00342639
     atom    4 type  2   force =     0.00423188   -0.01126194   -0.01072317
     atom    5 type  2   force =     0.01215310   -0.02520605    0.01794081
     atom    6 type  2   force =     0.06835279   -0.02095888    0.03443001
     atom    7 type  2   force =    -0.01913486    0.02811325    0.02065246
     atom    8 type  2   force =     0.00630373   -0.00067954   -0.00372165

     Total force =     0.124666     Total SCF correction =     0.000683


     entering subroutine stress ...

          total   stress  (Ry/bohr**3)                   (kbar)     P=    0.07
   0.00000965  -0.00000536   0.00000862          1.42     -0.79      1.27
  -0.00000536   0.00000163  -0.00000584         -0.79      0.24     -0.86
   0.00000862  -0.00000584  -0.00000987          1.27     -0.86     -1.45


     init_run     :      1.96s CPU      2.09s WALL (       1 calls)
     electrons    :     22.49s CPU     23.01s WALL (       1 calls)
     forces       :      0.93s CPU      0.93s WALL (       1 calls)
     stress       :      1.18s CPU      1.22s WALL (       1 calls)

     Called by init_run:
     wfcinit      :      0.23s CPU      0.25s WALL (       1 calls)
     potinit      :      1.38s CPU      1.46s WALL (       1 calls)

     Called by electrons:
     c_bands      :      7.36s CPU      7.43s WALL (      11 calls)
     sum_band     :      1.94s CPU      1.95s WALL (      11 calls)
     v_of_rho     :     13.22s CPU     13.59s WALL (      12 calls)
     mix_rho      :      1.02s CPU      1.10s WALL (      11 calls)

     Called by c_bands:
     init_us_2    :      0.31s CPU      0.32s WALL (      23 calls)
     regterg      :      6.78s CPU      6.85s WALL (      11 calls)

     Called by *egterg:
     h_psi        :      6.58s CPU      6.63s WALL (      40 calls)
     g_psi        :      0.08s CPU      0.08s WALL (      28 calls)
     rdiaghg      :      0.01s CPU      0.01s WALL (      39 calls)

     Called by h_psi:
     add_vuspsi   :      0.09s CPU      0.09s WALL (      40 calls)

     General routines
     calbec       :      0.12s CPU      0.13s WALL (      45 calls)
     fft          :      3.54s CPU      3.67s WALL (     139 calls)
     fftw         :      5.89s CPU      5.92s WALL (     332 calls)

     Parallel routines
     fft_scatter  :      2.24s CPU      2.30s WALL (     471 calls)

     PWSCF        :    26.60s CPU        27.32s WALL


   This run was terminated on:  16:12:43   4Jul2020            

=------------------------------------------------------------------------------=
   JOB DONE.
=------------------------------------------------------------------------------=
