
     Program PWSCF v.5.1.1 starts on  4Jul2020 at 17:32:30 

     This program is part of the open-source Quantum ESPRESSO suite
     for quantum simulation of materials; please cite
         "P. Giannozzi et al., J. Phys.:Condens. Matter 21 395502 (2009);
          URL http://www.quantum-espresso.org", 
     in publications or presentations arising from this work. More details at
     http://www.quantum-espresso.org/quote

     Parallel version (MPI), running on     1 processors
     Waiting for input...
     Reading input from standard input
Warning: card &IONS ignored
Warning: card / ignored
Warning: card &CELL ignored
Warning: card / ignored

     Current dimensions of program PWSCF are:
     Max number of different atomic species (ntypx) = 10
     Max number of k-points (npk) =  40000
     Max angular momentum in pseudopotentials (lmaxx) =  3

     gamma-point specific algorithms are used

     Subspace diagonalization in iterative solution of the eigenvalue problem:
     a serial algorithm will be used


     G-vector sticks info
     --------------------
     sticks:   dense  smooth     PW     G-vecs:    dense   smooth      PW
     Sum        5689    5689   1433               322453   322453   40339
     Tot        2845    2845    717



     bravais-lattice index     =            1
     lattice parameter (alat)  =      18.8973  a.u.
     unit-cell volume          =    6748.3346 (a.u.)^3
     number of atoms/cell      =            8
     number of atomic types    =            2
     number of electrons       =        14.00
     number of Kohn-Sham states=            7
     kinetic-energy cutoff     =      50.0000  Ry
     charge density cutoff     =     200.0000  Ry
     convergence threshold     =      1.0E-06
     mixing beta               =       0.2000
     number of iterations used =            8  plain     mixing
     Exchange-correlation      = PBE ( 1  4  3  4 0 0)

     celldm(1)=  18.897261  celldm(2)=   0.000000  celldm(3)=   0.000000
     celldm(4)=   0.000000  celldm(5)=   0.000000  celldm(6)=   0.000000

     crystal axes: (cart. coord. in units of alat)
               a(1) = (   1.000000   0.000000   0.000000 )  
               a(2) = (   0.000000   1.000000   0.000000 )  
               a(3) = (   0.000000   0.000000   1.000000 )  

     reciprocal axes: (cart. coord. in units 2 pi/alat)
               b(1) = (  1.000000  0.000000  0.000000 )  
               b(2) = (  0.000000  1.000000  0.000000 )  
               b(3) = (  0.000000  0.000000  1.000000 )  


     PseudoPot. # 1 for C  read from file:
     ../../pseudo-potentials/C_ONCV_PBE-1.0.upf
     MD5 check sum: 40f8c33130f0afa4272e9dcc1c4fb0df
     Pseudo is Norm-conserving, Zval =  4.0
     Generated using ONCVPSP code by D. R. Hamann
     Using radial grid of  602 points,  4 beta functions with: 
                l(1) =   0
                l(2) =   0
                l(3) =   1
                l(4) =   1

     PseudoPot. # 2 for H  read from file:
     ../../pseudo-potentials/H_ONCV_PBE-1.0.upf
     MD5 check sum: 10f92816c437af099bca1a183851adc8
     Pseudo is Norm-conserving, Zval =  1.0
     Generated using ONCVPSP code by D. R. Hamann
     Using radial grid of  602 points,  2 beta functions with: 
                l(1) =   0
                l(2) =   0

     atomic species   valence    mass     pseudopotential
        C              4.00     1.00000     C ( 1.00)
        H              1.00     1.00000     H ( 1.00)

     No symmetry found



   Cartesian axes

     site n.     atom                  positions (alat units)
         1           C   tau(   1) = (   1.7464640   2.1805240   1.9917920  )
         2           C   tau(   2) = (   1.8480960   2.2996880   2.0091720  )
         3           H   tau(   3) = (   1.7041560   2.2056040   1.8926920  )
         4           H   tau(   4) = (   1.6587960   2.1792360   2.0605120  )
         5           H   tau(   5) = (   1.7876240   2.0775840   1.9885680  )
         6           H   tau(   6) = (   1.8622040   2.3526320   1.9212080  )
         7           H   tau(   7) = (   1.9516440   2.2759520   2.0345680  )
         8           H   tau(   8) = (   1.8135800   2.3650760   2.0909920  )

     number of k points=     1
                       cart. coord. in units 2pi/alat
        k(    1) = (   0.0000000   0.0000000   0.0000000), wk =   2.0000000

     Dense  grid:   161227 G-vectors     FFT dimensions: (  90,  90,  90)

     Largest allocated arrays     est. size (Mb)     dimensions
        Kohn-Sham Wavefunctions         2.15 Mb     (   20170,    7)
        NL pseudopotentials             8.62 Mb     (   20170,   28)
        Each V/rho on FFT grid         11.12 Mb     (  729000)
        Each G-vector array             1.23 Mb     (  161227)
        G-vector shells                 0.01 Mb     (    1510)
     Largest temporary arrays     est. size (Mb)     dimensions
        Auxiliary wavefunctions         4.31 Mb     (   20170,   28)
        Each subspace H/S matrix        0.01 Mb     (      28,   28)
        Each <psi_i|beta_j> matrix      0.00 Mb     (      28,    7)
        Arrays for rho mixing          88.99 Mb     (  729000,    8)

     Initial potential from superposition of free atoms
     Check: negative starting charge=   -0.000639

     starting charge   13.97327, renormalised to   14.00000

     negative rho (up, down):  6.398E-04 0.000E+00
     Starting wfc are random

     total cpu time spent up to now is        1.8 secs

     per-process dynamical memory:   141.6 Mb

     Self-consistent Calculation

     iteration #  1     ecut=    50.00 Ry     beta=0.20
     Davidson diagonalization with overlap
     ethr =  1.00E-02,  avg # of iterations =  9.0

     negative rho (up, down):  4.523E-04 0.000E+00

     total cpu time spent up to now is        5.6 secs

     total energy              =     -29.99927772 Ry
     Harris-Foulkes estimate   =     -30.23978547 Ry
     estimated scf accuracy    <       0.93772090 Ry

     iteration #  2     ecut=    50.00 Ry     beta=0.20
     Davidson diagonalization with overlap
     ethr =  6.70E-03,  avg # of iterations =  1.0

     negative rho (up, down):  1.445E-04 0.000E+00

     total cpu time spent up to now is        7.5 secs

     total energy              =     -29.78979135 Ry
     Harris-Foulkes estimate   =     -30.02323529 Ry
     estimated scf accuracy    <       0.41094177 Ry

     iteration #  3     ecut=    50.00 Ry     beta=0.20
     Davidson diagonalization with overlap
     ethr =  2.94E-03,  avg # of iterations =  2.0

     negative rho (up, down):  1.961E-04 0.000E+00

     total cpu time spent up to now is        9.7 secs

     total energy              =     -29.94208701 Ry
     Harris-Foulkes estimate   =     -29.90521344 Ry
     estimated scf accuracy    <       0.07619901 Ry

     iteration #  4     ecut=    50.00 Ry     beta=0.20
     Davidson diagonalization with overlap
     ethr =  5.44E-04,  avg # of iterations =  2.0

     negative rho (up, down):  1.780E-05 0.000E+00

     total cpu time spent up to now is       11.9 secs

     total energy              =     -29.85098453 Ry
     Harris-Foulkes estimate   =     -29.95305004 Ry
     estimated scf accuracy    <       0.23173892 Ry

     iteration #  5     ecut=    50.00 Ry     beta=0.20
     Davidson diagonalization with overlap
     ethr =  5.44E-04,  avg # of iterations =  2.0

     negative rho (up, down):  3.637E-06 0.000E+00

     total cpu time spent up to now is       14.2 secs

     total energy              =     -29.88011952 Ry
     Harris-Foulkes estimate   =     -29.88117508 Ry
     estimated scf accuracy    <       0.00598535 Ry

     iteration #  6     ecut=    50.00 Ry     beta=0.20
     Davidson diagonalization with overlap
     ethr =  4.28E-05,  avg # of iterations =  1.0

     negative rho (up, down):  1.133E-06 0.000E+00

     total cpu time spent up to now is       16.3 secs

     total energy              =     -29.87866821 Ry
     Harris-Foulkes estimate   =     -29.88044035 Ry
     estimated scf accuracy    <       0.00342089 Ry

     iteration #  7     ecut=    50.00 Ry     beta=0.20
     Davidson diagonalization with overlap
     ethr =  2.44E-05,  avg # of iterations =  2.0

     negative rho (up, down):  6.080E-08 0.000E+00

     total cpu time spent up to now is       18.6 secs

     total energy              =     -29.87966443 Ry
     Harris-Foulkes estimate   =     -29.87971104 Ry
     estimated scf accuracy    <       0.00023632 Ry

     iteration #  8     ecut=    50.00 Ry     beta=0.20
     Davidson diagonalization with overlap
     ethr =  1.69E-06,  avg # of iterations =  2.0

     negative rho (up, down):  4.242E-08 0.000E+00

     total cpu time spent up to now is       20.8 secs

     total energy              =     -29.87965264 Ry
     Harris-Foulkes estimate   =     -29.87968610 Ry
     estimated scf accuracy    <       0.00010175 Ry

     iteration #  9     ecut=    50.00 Ry     beta=0.20
     Davidson diagonalization with overlap
     ethr =  7.27E-07,  avg # of iterations =  2.0

     total cpu time spent up to now is       22.9 secs

     total energy              =     -29.87965395 Ry
     Harris-Foulkes estimate   =     -29.87966100 Ry
     estimated scf accuracy    <       0.00001780 Ry

     iteration # 10     ecut=    50.00 Ry     beta=0.20
     Davidson diagonalization with overlap
     ethr =  1.27E-07,  avg # of iterations =  2.0

     total cpu time spent up to now is       24.9 secs

     End of self-consistent calculation

          k = 0.0000 0.0000 0.0000 ( 20170 PWs)   bands (ev):

   -18.0984 -14.9419 -10.2704 -10.0140  -8.7443  -7.8091  -7.6364

     highest occupied level (ev):    -7.6364

!    total energy              =     -29.87965742 Ry
     Harris-Foulkes estimate   =     -29.87965744 Ry
     estimated scf accuracy    <       0.00000039 Ry

     The total energy is the sum of the following terms:

     one-electron contribution =     -87.77500656 Ry
     hartree contribution      =      45.50101402 Ry
     xc contribution           =     -11.28460730 Ry
     ewald contribution        =      23.67894242 Ry

     convergence has been achieved in  10 iterations

     Forces acting on atoms (Ry/au):

     atom    1 type  1   force =     0.00262823    0.02774563   -0.03031483
     atom    2 type  1   force =    -0.01783671   -0.05825214    0.09741655
     atom    3 type  2   force =    -0.00905424   -0.02772497    0.00450566
     atom    4 type  2   force =     0.02640140    0.00867779   -0.00066783
     atom    5 type  2   force =     0.00371915    0.01985347   -0.00002634
     atom    6 type  2   force =    -0.01094589    0.05047846   -0.07286542
     atom    7 type  2   force =     0.00300090   -0.02683614    0.01506744
     atom    8 type  2   force =     0.00208715    0.00605790   -0.01311522

     Total force =     0.161541     Total SCF correction =     0.000453


     entering subroutine stress ...

          total   stress  (Ry/bohr**3)                   (kbar)     P=   -2.50
  -0.00002761  -0.00001008   0.00000999         -4.06     -1.48      1.47
  -0.00001008  -0.00002261  -0.00000518         -1.48     -3.33     -0.76
   0.00000999  -0.00000518  -0.00000072          1.47     -0.76     -0.11


     init_run     :      1.69s CPU      1.75s WALL (       1 calls)
     electrons    :     22.81s CPU     23.08s WALL (       1 calls)
     forces       :      1.04s CPU      1.05s WALL (       1 calls)
     stress       :      1.38s CPU      1.42s WALL (       1 calls)

     Called by init_run:
     wfcinit      :      0.18s CPU      0.19s WALL (       1 calls)
     potinit      :      1.18s CPU      1.21s WALL (       1 calls)

     Called by electrons:
     c_bands      :      7.93s CPU      7.96s WALL (      10 calls)
     sum_band     :      2.20s CPU      2.20s WALL (      10 calls)
     v_of_rho     :     12.33s CPU     12.52s WALL (      11 calls)
     mix_rho      :      1.13s CPU      1.18s WALL (      10 calls)

     Called by c_bands:
     init_us_2    :      0.29s CPU      0.30s WALL (      21 calls)
     regterg      :      7.41s CPU      7.44s WALL (      10 calls)

     Called by *egterg:
     h_psi        :      7.10s CPU      7.13s WALL (      36 calls)
     g_psi        :      0.07s CPU      0.07s WALL (      25 calls)
     rdiaghg      :      0.00s CPU      0.01s WALL (      35 calls)

     Called by h_psi:
     add_vuspsi   :      0.11s CPU      0.11s WALL (      36 calls)

     General routines
     calbec       :      0.14s CPU      0.14s WALL (      41 calls)
     fft          :      3.71s CPU      3.79s WALL (     128 calls)
     fftw         :      6.05s CPU      6.07s WALL (     302 calls)

     Parallel routines
     fft_scatter  :      2.65s CPU      2.69s WALL (     430 calls)

     PWSCF        :    26.96s CPU        27.34s WALL


   This run was terminated on:  17:32:57   4Jul2020            

=------------------------------------------------------------------------------=
   JOB DONE.
=------------------------------------------------------------------------------=
