  -406.46529793
  -406.68548492
  -406.48661629
  -406.51774912
  -406.37419485
  -406.59565344
  -406.66934625
  -406.54232781
  -406.40625260
  -406.24851575
  -406.36074671
  -406.58297647
  -406.45546073
  -406.41278469
  -406.43336073
  -406.47763843
  -406.15242034
  -406.47324610
  -406.56536416
  -406.58725355
  -406.41442391
  -406.64046326
  -406.52882402
  -406.61189374
  -406.42350898
  -406.56837075
  -406.53644443
  -406.45573911
  -406.45230612
  -406.47995480
  -406.55711571
  -406.70334308
  -406.39501946
  -406.36413235
  -406.48048556
  -406.45124133
  -406.58281714
  -406.45501596
  -406.39171260
  -406.57034181
  -406.44036957
  -406.57829951
  -406.53359717
  -406.52156647
  -406.32110950
  -406.41871868
  -406.65010644
  -406.56140640
  -406.35481843
  -406.54450078
  -406.38016979
  -406.27097672
  -406.43962656
  -406.57242729
  -406.54457057
  -406.66633831
  -406.61403392
  -406.62184740
  -406.32264205
  -406.53499924
  -406.46437600
  -406.56614173
  -406.52556518
  -406.36815800
  -406.48947185
  -406.67725538
  -406.47071531
  -406.50745504
  -406.48078992
  -406.52739896
  -406.63112091
  -406.61217470
  -406.49197435
  -406.47317086
  -406.60809843
  -406.31934498
  -406.54014981
  -406.55216527
  -406.54579509
  -406.41126317
  -406.37713273
  -406.60357291
  -406.37880120
  -406.45293103
  -406.49603619
  -406.51674665
  -406.72743306
  -406.55690917
  -406.46907718
  -406.49901162
  -406.62513943
  -406.45689056
  -406.55946500
  -406.42842118
  -406.65911803
  -406.54707470
  -406.48199838
  -406.40780596
  -406.60122198
  -406.63367728
  -406.62097106
  -406.59404987
  -406.47700862
  -406.43643194
  -406.50074812
  -406.47920431
  -406.57602654
  -406.33957202
  -406.59014748
  -406.66381159
  -406.51894342
  -406.51870791
  -406.44583334
  -406.47615677
  -406.53708880
  -406.37642292
  -406.49676559
  -406.57883829
  -406.59593467
  -406.56064693
