  1.52701292  -2.04818956   1.25005945   1.84900014  -0.44361545  -0.58476856  -0.66971343   0.25738409  -0.29917210  -2.04351788   0.53807285  -0.89338326   0.57110268   1.00219972  -0.77449378   0.20316870   0.28471843  -0.17230810  -0.86946848   1.32643742   0.89025861  -0.56758465  -0.91700751   0.58380774 
 -0.37290313  -0.78136066  -0.41527607   0.19641340  -0.38044081   0.62468841   0.14351981   0.41592424   0.50186772  -0.31300922   0.04679033   0.54330631  -0.00190184   0.05547857  -0.69150988   0.86998090  -0.45763897  -0.62197925  -0.78302004   0.82616173   0.14071757   0.26091986   0.27508531  -0.08181507 
  1.03269599   1.07701498  -1.56555646  -0.08040997  -1.25285268   2.36265710   0.11830919   0.62844941   0.14336529  -0.09421675  -0.53210611   0.26365551  -0.10507885  -0.00209493   0.37483068  -1.67281431   0.21072360  -0.09661764   0.51529783  -0.20263160  -1.28897091   0.28621661   0.07349706  -0.19336383 
  1.93784253  -0.81923288  -0.48813473  -0.39686497  -0.58058539  -0.20629412  -0.51614758   0.43916385  -0.65412693   0.94015560   1.08424542   1.09157792  -1.31650014   0.74047176   0.51169393  -0.34101873  -0.08277949   0.23023204  -0.16198464  -0.49164941  -0.16577675  -0.14548181  -0.28963385  -0.31917136 
 -1.95569364  -1.99460768  -0.74305545   1.01822330   3.50724175  -0.25333205   0.64393691   0.67407812  -1.24544433   0.47394511  -0.02257833   1.03984132  -0.07534774   0.11809425   0.24503847  -0.84445944  -1.13775325   1.28174279  -0.10561493  -0.00492313  -0.63192450   0.84501068  -1.13955147   0.30713401 
 -0.33712763  -1.36460610  -1.67870212  -0.04511809  -0.46461795   1.03838094  -0.72343337   0.04240378   0.61935647   0.36983582   0.00507534   0.38180864   0.06333841   0.56959267  -0.50401921   1.20637577   0.29234533   0.63254953  -0.57222059   1.02146493   0.27270525   0.03834994  -0.10165827  -0.76207950 
 -0.10182102   0.33110639   0.50789333  -0.84429078  -0.54973713   0.99047964  -0.05389941  -0.48529470  -0.37774296   0.85830582   0.41325673   0.08980681  -0.05229196   0.24997754  -0.01772204  -0.12372443   0.13915152   0.28284385  -0.39046243  -0.25272038   0.25284714   0.70818421   0.15426030  -1.72840576 
  0.32861551   1.21835862   2.34553746  -0.29795957  -0.63491057  -2.02711146   0.23357164  -0.82647283  -0.95736291   0.11493463   0.29712628  -0.03740840  -0.15102201   0.23845286  -1.18470196   0.67692843  -0.23930107   0.54077995  -0.55834259  -0.24368119   0.09210768  -0.34672553   0.19042789   1.22815963 
 -2.45828924   0.34023557   1.00732211   1.12565547   0.59873218   0.57314875   1.23793596  -0.09748975   0.23466307   0.35974556  -0.78181857  -1.74530968   0.07868991  -0.57472046   0.97285401  -0.30211318   0.25696218   0.21674459   0.77072738  -0.06525208   0.51060635  -0.81235186   0.32335093  -1.77002947 
 -0.81757993   0.02505326  -1.03491947   1.66387924   2.53212029   0.25728665  -0.02337460  -0.84912958  -1.40734490  -0.18574002  -0.32689339   0.37376574  -0.22953836  -0.33204741   1.41337874  -0.77288941   0.61157660  -0.23613322   1.88844819  -2.12264924  -0.46013987  -1.52320538   0.46196921   1.09410582 
 -0.32266085  -0.25944380  -2.13259912   1.00277642  -0.27781967   1.86337513   0.24810398   0.23647055   1.01938569  -0.52086837   0.33840495  -0.12367404   0.54204905  -0.78162316  -0.09007883   0.11023338  -0.55368119  -0.75636807  -1.95530772   1.13645510  -0.33689366   0.89567385   0.16123748   0.55685264 
 -0.76017098  -0.26113892   1.87452880   0.07535777   0.38547219  -2.38863339  -0.38188243  -0.60078237  -0.49961004   0.64467250   0.07472939   0.14042138  -0.04715517   0.05778947  -0.44501181   0.50481085   0.42698200   0.46748061   0.06921336  -0.18317998   0.56518684  -0.10484591   0.10012847   0.28563760 
  0.78883766   1.87334378  -1.60272112  -1.63013542  -0.76687793   2.26611685  -0.53855673  -0.59484700  -0.34909377  -0.05225493  -0.19265292  -0.97371636   0.43830922  -0.18289304   1.70046567   0.87530204   0.24608567  -0.44789555  -0.08939672   0.07447819   0.09920364   0.20789540  -0.45663676  -0.69235912 
  0.74555893   0.27747900  -2.13652030   0.43376969  -1.47110625   0.98333662  -0.99320757  -0.28339380   0.61965318   0.47140024  -0.01331287  -0.06872177   0.52614965   0.70606074  -0.08429926   0.05062743   0.41687452   0.64526925   0.04472163   0.55211925   0.24976594  -1.27902000  -0.18472058  -0.20848367 
 -0.46735462   1.09100868   1.17974745  -0.42882162   0.32720141  -0.77199596   1.11175588  -0.15592071   0.06930001   0.11450757   0.19382997   0.14295854   0.13500768  -0.77782103  -0.70617618  -1.00850096  -0.17170492  -1.50066588   0.44133951  -0.10195729   1.69456989   0.10206604  -0.40463585  -0.10773814 
  1.64004211  -0.23360018  -1.66864965  -0.86357836   1.70229372  -1.24031165  -0.01442641   0.34596166   0.24957336  -1.68818252   0.56751446   0.97887989  -0.01647789  -1.23835068   1.18564220   0.84741054   0.35665818   0.46658047  -0.39187730  -0.68311552  -0.58996166   0.48709009  -0.81736138   0.61824705 
 -0.69910336   0.28205838   0.84526239   0.28161358   0.77343937   0.04189008   0.80064824   0.55488832   0.21264113   0.14875379  -0.19265755  -0.34921461   0.03897883  -1.21544197   0.02267294  -2.10442480   0.18289227  -0.17786501   0.27632844  -0.35885596   0.52025079   1.25720581  -0.02632287  -1.11563797 
 -0.17677924   0.41005906   2.24019019  -1.11860116   0.14955160   0.74896666  -0.02617863   0.60169177  -0.13886407   0.08160270  -1.32921806  -1.36471357   0.91465085   0.09802865  -0.14063607  -0.28953306   0.60442561  -0.33060374   1.02878278   0.27582887  -0.90595001  -0.41394424  -0.81036749  -0.10838965 
 -0.65080508  -0.30455057   2.09756281  -0.76530751  -0.25456077   0.28200721   0.24975617   0.73293460  -1.53161312  -0.30409498   0.27543909   0.20820007   1.23305757  -0.47669104  -0.53544982   0.35736858   0.10117182  -0.36113703   0.04524742   0.19359548  -1.06250655  -0.16522216  -0.26733886   0.90293617 
  0.55590391   0.25074115  -0.13301329  -1.41856130  -1.73095063   0.13019202   0.40286205   0.08614557  -0.33400889  -0.07253650   0.17196486   0.69130060  -0.80737474   0.19709114  -0.33266833  -0.51230611   0.85218455  -0.49815840   0.11065453   0.95963370  -1.17587770   1.74135816  -0.78681061   1.65223373 
  0.31309252  -1.38287887  -0.05726600  -0.45305394   1.87057471  -1.72986126  -1.00126538  -0.32084489  -0.36083981  -0.09872002   0.73343262   0.71340173   1.45224547  -0.14058722   0.59378308   0.71071725   0.00390164   0.17122310  -1.01791811  -0.15998741   1.36858924   0.09490220  -0.60361006  -0.69902982 
 -0.09964022  -0.63524790   0.24912831  -0.87454974   0.02570221   1.28027984  -0.22821399   0.46298582  -0.21782343  -0.61213915   0.28599112  -0.77642672   0.80245546  -0.35580664   0.52506465   0.95323270  -0.47187255  -0.23529736   0.45775955  -0.14973106   0.26014082  -0.39890462   0.83797925  -1.08506637 
  1.48828965   0.75114540   1.53354941  -1.79544552   0.30862859  -1.23262897  -0.59358793  -0.52711201  -1.11705053   0.04163657   0.05888527  -0.45365120  -0.25643742  -0.08533079   0.48083076   0.77261970   0.17596368   0.26329247  -0.00341519  -0.11702082  -0.15550265   0.34634012  -0.56515933   0.68116071 
 -0.42564761   1.06773976   0.10370537   1.29292963   0.51457690   0.46759116  -0.09899976   0.18507565  -0.17851524   0.63261510   0.20926065   0.14515425  -0.24917459  -0.70349222  -0.59248699  -0.33445292  -0.66691865  -0.50926759  -0.27830304  -1.30566812   0.09662406  -0.53896682   0.69942603   0.46719496 
 -1.10030499   1.07207900  -2.26664161   0.40207863   0.35801649  -0.21503224   1.64735430  -0.99337726   0.99094192  -0.21174459   0.47893149   1.06513575  -0.24990323   0.31945084  -0.34412230  -0.25361795   0.22843973  -0.85724858  -0.07955816  -1.53784597   0.98450339  -0.15430401   0.07430567   0.64246368 
  1.43656025  -0.07003740   0.68152478  -0.26737074   0.49651495  -0.80937891   0.06252260   0.28229363   0.26167242  -0.88480224  -0.43098417   0.36953089   0.32692578   0.26437644  -0.20379116  -0.47646247  -0.40329785  -0.18806634   0.44212755   0.24920313   0.04016050  -0.63950075  -0.38806874  -0.15165244 
 -0.44578365   1.06383015   0.86903088   0.44795648  -0.21322297   1.30099464  -0.52269359  -0.80173813   0.11584583  -0.11790965   0.36438638  -0.44804287   0.13525322  -0.71298136  -1.07667097   0.13788294   0.57221210  -0.22574060  -0.11213934  -0.31270454   0.00859800   0.47743383   0.04021835  -0.54401491 
 -1.27098559   0.06355953  -0.90372395   0.06946970   0.88554014   1.37396180   0.47677152   0.05131006   1.23951770  -0.27085817   0.35418582   0.05282597   0.01747548  -0.57626878  -1.30322404  -0.61505092  -0.58328144  -0.46887517   0.63710731   0.16006403   0.39171661   0.95607042  -0.35510936  -0.38219867 
 -2.18229247   0.76122898  -1.38721271   0.40094452  -0.86867556   1.32086355   0.26971198   0.53012199  -0.21140700   1.00817391  -0.20227653   0.54763526  -0.01076466  -0.49739633   0.59406615   0.09342562  -0.23223518   0.15612357   0.85098848   0.13367997  -0.65742616  -0.43018687   0.37555239  -0.36264267 
  0.22738481   0.65637973   1.55780589   2.78913928   0.40569077  -1.34865657  -0.56204291  -0.19487512  -1.58505307  -0.47435006   0.48010931   0.05696415   0.57770371  -1.53474163   0.40394679  -1.28443036  -0.00002957  -0.44670719  -0.55033826   0.15608372   0.62078626  -0.72306596   0.03138279   0.74091373 
  1.48176704  -0.40724782   0.11101448  -0.06265219  -0.93263900   1.99603901  -0.10257615   1.46045935  -0.01517974  -0.46858926   0.02382634  -0.27984415  -0.29805290  -0.13009278  -0.04092720   0.19851039  -0.82135275  -0.48624266  -0.76245925   0.21898916  -0.35764369   0.01405206   0.58805776  -0.92721630 
 -0.04552407   1.00694313   0.39983895   0.26080005  -0.27255150  -0.66256578   0.86224859  -0.35004276  -0.83993508  -0.95754083   0.46925081   0.57952019  -0.05139259  -0.59814520   0.59855246   0.42343569  -0.59137936   0.15017046  -0.04294911   0.69118644  -0.07162222  -0.44907748  -0.35526131  -0.15395871 
  0.47520803  -0.11884938  -0.01471001  -0.08705471  -0.72715143   0.25620345  -0.14014345   0.95877624   0.94262333  -0.96643553   0.75657401  -0.30111765   0.23052798  -0.88331871  -0.88431810  -1.02404631   0.25954150   0.45000462   0.82078480  -0.78915004   0.57575070   0.69115919   0.54357756  -1.02443635 
 -0.27651381  -0.41533417   1.59259384   0.32471593   1.51408828   0.79344609  -0.86502434   0.15513062  -1.00349555   1.04347968  -0.46790638  -0.51447174  -0.00797425   0.18028287   0.57739415   0.65542071  -0.56734219  -0.74073196  -0.66046031   0.89979480  -0.23588023  -0.21364360  -1.29871408  -0.46885460 
  0.76746697   0.57492255  -0.28623795   0.49818642  -0.18357438  -1.91124224  -0.41439958  -0.25315258   0.79545154   0.27327732  -1.32346858   0.17724923  -0.17785575   0.32085183  -0.56129626   0.33677925   0.80574775   1.44320885   0.00396360  -0.46418035  -0.20975944  -1.28741849   0.52285377   0.55262627 
  0.40814899  -0.83411001  -0.65299977   2.03270436  -1.89753239   2.34923316  -0.13780992   0.38871305  -0.44308863   0.63656867  -0.00676378  -0.24922009  -0.82736063   0.65964836   0.98232310  -0.51088378   1.16348271  -1.10518956  -1.63342411   1.03944666   0.80571201   0.03205641  -0.51288486  -1.68676996 
 -0.15151720  -1.00096122  -0.48807199  -0.93131334   0.51276890   0.28532521   1.13828752   0.09614276  -0.34092823   0.11258876   0.32660337  -0.22195415  -0.78394975   0.62333113   0.41520947  -0.73731626  -0.55947001   0.82005332   1.40748014  -0.90510232  -0.23889766  -0.05426013   0.90668714  -0.23073624 
  1.22954288  -1.45940134   1.29075731   2.02421744  -1.07951100  -1.01561955  -0.69655592  -0.18832140   0.05674355  -0.34497641   1.65919651  -0.21378501  -1.17743810   0.27495264  -0.76863631  -0.30018203   1.25461774   0.03951002  -0.22686494   0.11150556   0.26525884  -0.50774293  -0.57303897   0.34577114 
 -1.51641486  -0.28136804   2.54353800   0.17467222  -0.86386478  -1.39081456  -0.35173094  -0.89735149  -1.93830558   0.63037927   0.51776223   0.33542223   1.01948365   0.56600394   0.30370237  -0.14297705   0.39787078   0.22613423   0.15259243   0.26578155   0.04875593   0.03399528   0.29516582  -0.12843262 
  0.29550855   1.54402122   0.34690885  -0.72680176   0.44652155  -1.22600480   0.67560329  -1.59422828  -0.07595760  -0.88387844   0.56024443  -1.26282082   0.10727045  -0.38134121   1.05759319  -0.37020786   0.04112646   0.63522579  -0.08515929   0.00122101   0.11533932   0.98766506  -0.61756519   0.40971633 
  0.59976756   0.81614911  -0.37113062  -0.62214431   0.75433485  -1.92374367   0.53050560  -1.65652463   1.04321923   0.47752305  -0.73991666  -0.10220565  -1.59389224   1.16519480   0.16279659  -0.40668141  -0.28675371   0.10264428   0.77062222  -0.53304507   0.49182193   0.24429953   0.48056157   0.59659791 
 -0.48720888  -1.84535921  -1.04720494   0.69060897   1.92333384  -0.08274401   0.29988815   0.53060022   1.16003384   0.68491503   0.29113948   0.13573530  -0.44694630  -0.41349121  -0.20253312  -0.24572829   0.25632454   0.61972260  -0.39489654  -0.81124655   0.99706087  -0.10063189   0.06869889  -1.58007055 
  0.06757429   0.71336651  -0.77942308  -0.45859876  -1.49771786   2.50467205  -0.23279311  -0.71283532   0.11584480   0.67880508   0.22311422  -0.01717054   0.09562288   0.51045157  -0.00067723  -0.28142923   1.29784916  -1.87343917   0.07715599  -0.68998265   0.38739820   0.05366261   0.15575436  -0.33720477 
 -1.26225852   0.04584082  -0.15876152   0.27090394  -1.62406070   0.90737028  -0.49390349   0.29942150  -0.47119044   0.14952897   0.29753765  -0.01461436   1.13839962  -0.83480215   0.64856257   0.10994208  -0.06268792   1.04323851  -0.04469720   1.25381479  -1.20042163   0.13208461   0.62493575  -0.75418341 
  0.49065826  -1.52079061  -0.94911741   2.45688130  -0.53397478   0.23920799  -0.79990802   0.11159246   0.83133554   0.40137775   0.18787068  -0.43214605  -0.10025702   0.09102370   0.47207567   0.06952318   0.78846279   0.09587048  -1.38099169  -1.02147650  -0.78018361  -1.13728376   1.89729225   0.52295764 
  0.70678913  -0.54296744   0.51715108   2.31675354  -1.78607850   0.66081692  -0.52811834  -0.60989562  -0.45935672  -0.08291190   0.48997435   0.56761344   0.19070917   0.41921987   0.18794782  -0.24909103  -0.66019986  -0.96252129  -0.47657303   2.02249737  -1.01904013  -1.87755755   0.66744983   0.50738889 
 -0.82772933   0.87764019   0.16365560   0.23540046  -0.21054491  -0.39998114  -0.14323056   0.08889715   0.47043120  -0.15153417  -0.20893001  -0.65187286   0.81159210  -0.73075045  -0.42319247  -0.08941549   0.28468604   0.36192559   0.67606069   0.50650751   0.26578566  -0.51114371  -0.60750553   0.21324816 
 -0.55400927  -1.03144155   1.06222013   0.92055511  -0.96755164  -0.62518926   0.79449072  -0.25761086  -0.56610370   0.04607274   1.76617797  -0.74408929  -0.62743923  -0.08310910   0.19316817   0.04400609   0.12745766  -0.32099093  -0.55526010   0.15395537  -0.14087852  -0.06841607   0.29212190   1.14186366 
 -1.28876960   0.93369778  -0.60548310   1.06255360   1.09068601  -0.71221748  -1.02845291  -0.24941138  -0.83042460   0.82954863  -0.12620117   0.26279805   0.10987266   0.53217424   0.51345179   1.79937029  -0.11456491   0.43573967  -0.73398592  -0.45106262   0.02247831  -0.75013676  -1.61531794   0.91365738 
 -0.41519430  -0.24702721  -0.02661469  -2.05093291   0.15864119   0.30918677  -0.25566532   0.78144267   0.06057988  -0.36350424  -0.16443387  -0.38476617   1.19985110  -0.24816543   0.03903411   0.27269111  -0.43167477   0.84952218   1.70567522  -0.25444559  -2.05770775  -0.09292066   0.40566274   1.21076566 
  2.37235861  -2.62187181  -2.27886974  -0.19659826  -0.01581738   1.78583348  -0.02329104  -0.53117949   0.44605593  -0.09270623   1.64979479   2.04076758  -2.86013724   0.75705095  -0.17803727   0.26736637   0.37504974  -0.67301985   0.18700268   0.84426327  -1.17252371   0.34600511  -0.45729007   0.02979359 
 -2.67838602   2.01893641  -0.06640239   0.43125722   1.89028421  -0.82777432   0.21957460  -0.91581350  -1.07211036  -0.10405813   0.06266453  -0.15457449   0.90722938  -1.94616825   0.37896269  -0.50283188  -0.55593939   0.48329233   1.67185401   0.14802771   1.67278243   0.05536082  -0.70199172  -0.41417589 
 -0.69180505   0.79593825  -1.43708090   1.16565117  -0.95091897  -0.18569631   0.28766439  -0.59739804   0.21976897   0.98271467  -0.32362476  -0.02953314  -1.03380130   1.02684829   0.94881427  -0.35796147   0.91227953   0.60650280   0.00244023  -0.62769196   0.14886897  -0.35490290  -0.23543260  -0.27164467 
  1.40428298  -1.71399606   1.03845730  -0.56398409  -0.14728209  -1.69898857   0.66377703   0.43380466  -0.51764576  -1.39167767   1.05492696  -0.08861202   0.08705959  -0.03401816  -0.16222735   0.21605091   0.12281812   0.66000574   0.16987225   0.19651085   0.16020544  -0.58538100   0.08723571   0.60880470 
  0.16493009   0.14029823  -0.30581864  -0.58188945  -1.09903693   0.38917585   0.81539450   0.79146403  -0.09306284  -0.55941679   0.65167951   0.95295322  -0.06438536  -0.03770254  -0.96967434   0.09563702  -0.81175923  -0.17254181   0.09214804   0.00616086  -0.75938628   0.03758195   0.35889607   0.95835458 
  0.51478336   0.48827408  -1.07939813   0.23443681  -1.66584947   1.47288777  -0.46071811   1.07854684   0.52597585  -0.35087785  -0.81237423   0.42624539  -0.02014453   0.31774543  -0.18291798  -0.10971531   0.71990866  -0.99217913   0.08079563   0.41745790   0.42546660   0.11143974  -0.54370920  -0.59608009 
  0.89976292  -2.17881224  -1.71281001   0.00259501   1.39072637   0.07716473  -0.49468665   0.83651039   0.61996608  -0.25164747  -0.11525448   0.65122468  -0.95839752  -0.04712226   0.71796208   0.40697143   0.83475536  -0.43358278   0.59390443  -0.67756169   0.31268475  -0.19850216  -0.04324119  -0.23260954 
 -0.50157950   0.76216743   0.35825124  -0.82773447   0.25546503  -0.90951869   0.00081812  -1.14562311   0.04299848   0.36644763   0.56807958   0.01809280   1.15462991   0.03881196  -0.31212579   0.12262580  -0.10526423   0.44150586   0.19831061  -0.53757020   0.03864947  -0.51351812   0.16393353   0.32214638 
  2.24237639  -2.47180265   2.32048034  -1.02867300   1.04813619  -1.78206323  -0.63173244   0.39450187  -1.22409164  -0.18348774  -0.13343057  -0.29960970  -1.37254024   0.49055078  -0.70258025   0.89054015   0.46433744   1.00938182   0.01928630   0.67505616  -0.10449419   0.06423110  -0.46734922   0.78297710 
  0.47883559   0.59413917  -0.44756362   2.07310784  -2.13366278   0.79934752  -0.27007759   0.60358281  -0.16259091  -0.54571671  -0.34012090  -0.73467908  -0.42678583  -0.34180086   1.40793805  -0.42776953   1.19961636  -0.79048316  -0.72781760   0.89080266   0.77445084  -0.15377616  -0.47255646  -0.84641964 
 -1.73780131   0.42337476   2.07778183   0.70046964  -0.04419481  -0.08366369   0.48736186   0.62350828   0.10683414  -0.64957841  -0.10425096  -0.50084211   1.62099261   0.03140875  -1.25237960   0.23843564  -1.48866041  -0.12067923   0.29036276   0.63774932  -0.29428651  -0.95024303  -0.07893467   0.06723542 
  0.21735883   0.10997499  -0.30622847   0.46254950  -0.20566909   2.98065141   0.49953728   0.14552629   0.43769679  -0.14067206   0.55708558   0.05646639   0.15627013  -0.63143034  -0.05147589   0.04877959   0.36689320  -1.05294465  -1.55522606   0.14282741  -1.24962313   0.31140280  -0.48520779  -0.81454192 
  0.69871229  -2.73074509   1.48596744   0.80068835   1.53178718  -0.45163829  -0.71067920   0.58165265  -0.20118176  -0.56278261   0.12591141  -0.91479097   0.71838451   1.22604645  -0.37001528   0.11602220  -0.08308391   0.05434575  -0.59888901   0.15883891   0.55312147  -0.46145679  -0.81040760  -0.15580861 
  0.96986460   1.95620683  -1.75541100  -1.07746981  -1.40513967  -2.01676615  -0.58384554  -0.44945029   2.21571131   0.31929837  -0.18526282  -0.11333130  -0.15664088   0.05789206  -0.59178662   0.26931526   0.27365244   2.81493122  -0.25820093  -0.24305538   0.16451717   0.51767867  -0.00484317  -0.71786464 
  1.61203363  -1.18708330   0.55704804  -1.60864827   0.54871384  -0.01703016  -0.35496898   1.72827926  -0.06276480  -0.07628850   0.53864157  -0.46928963  -1.25724977  -0.52310059   0.96185692   1.33354470  -0.44823313   0.41810324  -0.05854100  -0.82059094  -0.75454979   0.41011819   0.16337303  -0.63337383 
  0.52081540   0.46872527  -0.09714111  -0.99795176   0.02771435   0.82878167   0.30093381  -0.96822424   1.37296319  -0.60121740   0.03248990  -1.38959200   0.48001624   0.25747382  -0.31612050   0.39984512  -0.59892244  -0.18281231  -0.04704127   0.27114742  -0.11006755  -0.05540041   0.50959617  -0.10601139 
 -1.45666853  -1.00620137   0.69044468   0.44639763   0.36032508  -1.49194061  -0.85138494   0.24762216  -0.49702737   1.45192023  -0.22119053  -0.03671858   1.37264154   0.42712033  -0.51025746   0.15121664   0.84537218   0.72423838  -0.36233079  -0.51571332   0.90107598  -0.75179203  -0.13733427   0.22018523 
  0.64435292  -1.39192064  -0.52405010   1.55272412   2.13115185   0.62653729   0.27042237  -0.28772096   0.39707220   0.24024877   0.01523682   0.13834959  -0.94947196   0.85030380   0.12674573  -1.95068952  -0.56639089  -0.55950781   0.68302321  -0.70991841  -0.21178444  -0.49061018  -0.04074157   0.00663754 
  0.30325037  -2.73972669   0.37230638   1.70672114   1.19417670  -0.28355090   0.53477825   1.40123803  -0.81932005  -0.10703597   1.01761986  -0.04519985  -0.80655816   0.08926019  -0.16390474  -1.41787456   0.05617740   0.80262284   0.26017887  -0.35466353  -0.25862979  -0.47345969  -0.66408196   0.39567635 
  0.45902942  -0.60955083   3.18272559   0.50273006  -0.32276575  -1.16399744   0.24920775   0.47319204  -1.09778377  -0.16009540   0.00777113  -0.40629137  -1.03727023   0.35372405  -0.62313161   0.04000058   0.22751645  -0.29043603  -0.54200842  -0.20159982   0.21812064   0.48840598   0.07171272   0.18079400 
  1.19468012   1.20261632  -1.21665578  -1.18090033  -0.36587119   0.75181003   0.10558562  -0.31444698  -0.37991888  -0.11492923  -0.79980132   0.54971399  -0.21382666   0.32257061   0.37990345  -0.18904567  -0.08938000  -0.13433509   0.21680733   0.34713511   0.52442008   0.18162884  -0.30282254  -0.47493807 
 -0.04362377  -0.45724482  -1.04184832   0.82295429  -0.44419189  -0.14284747  -0.53687832  -0.37913033  -0.34990058  -0.03568526  -0.32455164   0.65816972  -0.47113619   0.58598829   0.67104320  -0.09313020   0.86716015  -0.03740532   0.39657469   0.38357986  -0.90744407  -0.03907499  -0.23160964   1.15023283 
  1.28006155  -0.19727061  -2.06431264  -0.24297105   0.82489058  -0.28892243  -0.37562104   1.00042309   0.95962778   0.08150628  -0.62480668   0.96271567  -0.92386977  -0.04316200   0.63422486  -0.72047918  -0.21644018   0.41797160   0.47397982  -1.03864242   0.19200346   0.42739312   0.29500770  -0.81330857 
  1.42046108  -1.90915914  -1.16172948  -0.36308104   0.33539574   0.84901902  -0.53970575   0.07129929  -0.53898404  -0.37223028   0.11327807   0.84893160  -0.70384086   0.76997199   0.63346664   0.42544603   0.15068494  -0.64785218  -0.25769365   0.31413176   0.67016440   0.39064446   0.15439760  -0.65301571 
  0.99647029   1.04884247   0.33193608   1.31007986  -1.22234407   0.20417477   0.11862929   0.14307887  -0.64929610  -0.87601706  -0.37610158  -0.31718776   0.03861810   0.15395871   0.66399043  -0.30219699  -0.18356538  -0.73666268   0.22893261   0.00203888  -0.02663012  -1.51451637   0.43409211   0.52967539 
 -0.15837585   1.08175300  -2.80876754   0.45759372   1.39719833   0.66544387  -0.72918157  -0.33847463   0.28863421  -0.70999117   0.00242609  -0.59240960   0.48687952  -1.53931766   1.47412575   1.34247720   0.28534167  -0.41524033  -0.85476850  -0.14227514   0.22569406   0.16536666  -0.74665139   1.16251983 
  0.71137802  -0.64808358   1.21353190  -1.88956019   0.10905042   0.81759638   0.71507474   0.05548732  -0.92211602  -0.66627690  -0.00676095   0.66601028  -0.30495038   0.47071453  -1.15117539   1.04293872  -0.76353011   0.12548126   0.07819548   0.40756381  -0.13308322   0.31320051   0.37555882  -0.61624545 
 -2.10595332  -0.52003559   0.70416481  -0.49247396   0.72338221   2.16909633   1.28284194  -0.64420842  -0.14679358  -0.52954221   0.67021479  -0.75893454   0.29407182   0.18741791   0.42777467   1.05996065   0.75993829  -2.09974001   0.67340835   0.07695750   0.20733053  -0.18231326  -1.25366721  -0.50289821 
  0.62460176   0.58963642  -0.57446773   0.88743941  -1.25074799   0.22947100   0.04681835   0.66273496  -0.95279227   0.70757923  -0.56503001   0.27381133  -0.53926275   0.40649295   0.79206618  -1.45741235   0.19834121   0.20403799   0.08159036   0.01882684   0.41604045  -0.35135402  -0.06025413  -0.38816670 
  0.85713468   0.39527783   2.48660625  -0.12245457  -0.69687807  -3.25908274   0.22831941  -0.34641957  -1.85493037  -0.15038643  -0.80709115   0.07308955  -0.58338377   0.61047231   0.13840024  -0.36024718  -0.38959648   0.67435451   0.08487622   0.98587249   1.21834859   0.04614139   0.24836238   0.52321372 
  0.55636670  -0.79099146   0.19404260  -1.26509058  -2.21954404   0.32839851  -0.11417487   0.43671283  -0.23038374   0.06455274  -1.07946241  -0.29475650  -0.40113839   1.42835974   0.06612882   1.42954322  -1.04886535   0.36878347  -0.50726265   1.93055913   1.37455470   0.23720357   1.34323130  -1.80676785 
 -0.14239470   1.23723020  -1.58550893  -0.10059203  -0.40375550   1.64506371   0.22303992  -0.74086488   1.07573406   0.09050229   0.36979931   0.36683329   0.18157407  -0.13682905  -0.21673817  -0.08323792  -0.80765010   0.92508795   0.05212252   0.20613111  -1.39733563  -0.22101441   0.27593891  -0.81313656 
 -1.64508531   0.46428911   0.22286714   0.66656743   0.95925883   0.29207948   1.44573417  -0.90489071   0.26075480  -0.96745780   0.82293783  -0.03696438   0.95325738  -0.41031771   0.06315021   0.21486461  -1.42704720  -1.62726917  -0.15638017   0.53872745   0.83848807  -0.51150084  -0.04295760  -0.01310641 
 -2.91572817  -0.53241001  -0.59627884   2.03818208  -0.07793349  -1.79437183   0.21145277   0.96789000   0.18732278   2.00683324  -0.82285093   0.05715724   0.12298344   0.79859059   0.53836801  -0.81114268   0.22426196   1.48565917  -0.20262748   0.11499145  -0.43170588  -0.44995371  -0.67253932   0.55384934 
 -1.78685626   0.96029396  -0.14144493   0.75212139  -2.47749249  -0.36114372   0.48836355   0.95275962  -1.24341137   0.14051831  -0.40406455   0.43074532   0.46510414  -1.27532997   0.29684089  -0.80102002   2.15719807   0.57055195  -0.02056696   0.15486219  -0.27287931   0.76233558  -0.06822658   0.72074118 
  0.07959519   0.75347610   1.02774792  -0.56209150  -1.41580611   0.37823019   0.86578847  -0.15477041  -0.25190560  -0.10447079  -0.64787557   0.39361305  -0.09785048  -0.39983664  -0.36313734   0.63361525  -0.28080420  -0.89616390  -0.61958453  -0.15609246   0.11816187  -0.19500136   2.30170904  -0.40654643 
  0.22271185  -1.63469757   0.68079150  -0.44043269   0.31750812  -0.61595054  -0.89880159   0.98359142   0.21062539   0.00962207   0.20115553  -0.29740679   0.16291178   0.14646063  -0.28705633  -0.43907412   0.01171494  -0.25154436   0.16382066   0.59119090  -0.22711819   1.21924205  -0.61692448   0.78765932 
  0.88074890   1.96833237   1.82589422  -1.35749574  -1.06313133   0.39880794  -0.08029530   0.12170741  -0.78324064  -0.50803012   0.05315225   0.48815581   0.39227582  -1.62058843  -1.00176752  -0.76391963   0.41171587   0.36387242   1.28367137   0.03006279  -1.48990533   0.15304417   0.09874907   0.19818309 
  0.40652072   0.50704719   0.49460772  -0.40765791  -1.52247288  -2.34119797   0.63084258   0.68048014  -0.67991862   0.74180642   0.08067350   0.14039259  -0.95084467   0.04587759  -0.46257727  -0.29987992  -0.69049559   0.31014965  -0.33702273   0.17311543   0.63927166   0.21623552   0.72577461   1.89927199 
  0.08560229  -1.95771684   1.15526935  -0.04452365   0.39494025  -3.20754848   0.59305006   0.82619412   1.42667465  -0.35120052   0.49957584  -0.00026868  -0.02382608   0.94774573  -1.43031352   0.19376492  -0.44672904   0.65038136  -0.04453471  -0.39975025   0.11877610  -0.40833257   0.13574019   1.28702896 
  2.46860781  -0.44437572   0.33374870  -0.71587024   0.02750686  -0.77420453  -1.93875321   1.02930883   0.70633919   0.22329909  -0.31175478   0.11922142   0.29325627   0.07964738  -0.41511614  -0.23390845   0.73281093  -0.46925878  -0.10035601  -0.60420347   0.53928975   0.00372449  -0.50893977  -0.04001935 
 -0.83692536  -2.22723161   0.15732505   0.13762043   1.43608126  -0.69938335   0.28086050   0.61068931  -0.42023108   0.31097985   0.78722378   0.75959479  -0.49526309   0.57059514   0.11665161   1.87365257  -0.63554563  -0.84120649  -0.57929239  -0.35576807   0.37218914  -0.69163227  -0.18604418   0.55506033 
  0.96145095   1.01379073   0.23649317  -1.61539765  -0.54239409  -2.97513718   0.24687834  -1.02016344  -0.55541180   0.22181916   0.61196638   0.18445087   0.02032014  -0.89258982   0.38240564  -0.60918831   1.77040768   1.42168621   0.23742751  -0.26607337   1.26929844   0.53668986  -0.67494406   0.03621490 
 -2.22685212  -2.36360455  -0.34820957   0.02755751   2.15196152   2.48015151   0.35921540   0.50776349   0.05768097   1.81332491   0.77746236  -0.36921798  -0.21322811  -0.06111261   0.21242361   0.28242322  -1.10922515  -1.61993743  -0.35716443   0.47454443  -0.63242226   0.31472363  -0.37778950   0.21953089 
 -1.03449910   0.31873865  -2.02084339   0.06641164   0.16009926  -0.56085146   0.14515682   0.36244263   0.26252165   0.44787498   0.58983902   0.64797379   0.51784373  -0.76312234   0.70346136  -0.79256420  -0.26171973   0.54351020   0.35056006  -0.21285838   0.47192706   0.29921581  -0.19341911  -0.04769921 