
     Program PWSCF v.5.1.1 starts on  4Jul2020 at 16:12:15 

     This program is part of the open-source Quantum ESPRESSO suite
     for quantum simulation of materials; please cite
         "P. Giannozzi et al., J. Phys.:Condens. Matter 21 395502 (2009);
          URL http://www.quantum-espresso.org", 
     in publications or presentations arising from this work. More details at
     http://www.quantum-espresso.org/quote

     Parallel version (MPI), running on     1 processors
     Waiting for input...
     Reading input from standard input
Warning: card &IONS ignored
Warning: card / ignored
Warning: card &CELL ignored
Warning: card / ignored

     Current dimensions of program PWSCF are:
     Max number of different atomic species (ntypx) = 10
     Max number of k-points (npk) =  40000
     Max angular momentum in pseudopotentials (lmaxx) =  3

     gamma-point specific algorithms are used

     Subspace diagonalization in iterative solution of the eigenvalue problem:
     a serial algorithm will be used


     G-vector sticks info
     --------------------
     sticks:   dense  smooth     PW     G-vecs:    dense   smooth      PW
     Sum        5689    5689   1433               322453   322453   40339
     Tot        2845    2845    717



     bravais-lattice index     =            1
     lattice parameter (alat)  =      18.8973  a.u.
     unit-cell volume          =    6748.3346 (a.u.)^3
     number of atoms/cell      =            8
     number of atomic types    =            2
     number of electrons       =        14.00
     number of Kohn-Sham states=            7
     kinetic-energy cutoff     =      50.0000  Ry
     charge density cutoff     =     200.0000  Ry
     convergence threshold     =      1.0E-06
     mixing beta               =       0.2000
     number of iterations used =            8  plain     mixing
     Exchange-correlation      = PBE ( 1  4  3  4 0 0)

     celldm(1)=  18.897261  celldm(2)=   0.000000  celldm(3)=   0.000000
     celldm(4)=   0.000000  celldm(5)=   0.000000  celldm(6)=   0.000000

     crystal axes: (cart. coord. in units of alat)
               a(1) = (   1.000000   0.000000   0.000000 )  
               a(2) = (   0.000000   1.000000   0.000000 )  
               a(3) = (   0.000000   0.000000   1.000000 )  

     reciprocal axes: (cart. coord. in units 2 pi/alat)
               b(1) = (  1.000000  0.000000  0.000000 )  
               b(2) = (  0.000000  1.000000  0.000000 )  
               b(3) = (  0.000000  0.000000  1.000000 )  


     PseudoPot. # 1 for C  read from file:
     ../../pseudo-potentials/C_ONCV_PBE-1.0.upf
     MD5 check sum: 40f8c33130f0afa4272e9dcc1c4fb0df
     Pseudo is Norm-conserving, Zval =  4.0
     Generated using ONCVPSP code by D. R. Hamann
     Using radial grid of  602 points,  4 beta functions with: 
                l(1) =   0
                l(2) =   0
                l(3) =   1
                l(4) =   1

     PseudoPot. # 2 for H  read from file:
     ../../pseudo-potentials/H_ONCV_PBE-1.0.upf
     MD5 check sum: 10f92816c437af099bca1a183851adc8
     Pseudo is Norm-conserving, Zval =  1.0
     Generated using ONCVPSP code by D. R. Hamann
     Using radial grid of  602 points,  2 beta functions with: 
                l(1) =   0
                l(2) =   0

     atomic species   valence    mass     pseudopotential
        C              4.00     1.00000     C ( 1.00)
        H              1.00     1.00000     H ( 1.00)

     No symmetry found



   Cartesian axes

     site n.     atom                  positions (alat units)
         1           C   tau(   1) = (   1.7560200   2.1766520   1.9984240  )
         2           C   tau(   2) = (   1.8377200   2.3048120   2.0010040  )
         3           H   tau(   3) = (   1.7045960   2.1541160   1.9046640  )
         4           H   tau(   4) = (   1.6658000   2.1808640   2.0662880  )
         5           H   tau(   5) = (   1.8240240   2.0900280   2.0163920  )
         6           H   tau(   6) = (   1.8619040   2.3503520   1.9065520  )
         7           H   tau(   7) = (   1.9367760   2.2843240   2.0447360  )
         8           H   tau(   8) = (   1.7946800   2.3815160   2.0681880  )

     number of k points=     1
                       cart. coord. in units 2pi/alat
        k(    1) = (   0.0000000   0.0000000   0.0000000), wk =   2.0000000

     Dense  grid:   161227 G-vectors     FFT dimensions: (  90,  90,  90)

     Largest allocated arrays     est. size (Mb)     dimensions
        Kohn-Sham Wavefunctions         2.15 Mb     (   20170,    7)
        NL pseudopotentials             8.62 Mb     (   20170,   28)
        Each V/rho on FFT grid         11.12 Mb     (  729000)
        Each G-vector array             1.23 Mb     (  161227)
        G-vector shells                 0.01 Mb     (    1510)
     Largest temporary arrays     est. size (Mb)     dimensions
        Auxiliary wavefunctions         4.31 Mb     (   20170,   28)
        Each subspace H/S matrix        0.01 Mb     (      28,   28)
        Each <psi_i|beta_j> matrix      0.00 Mb     (      28,    7)
        Arrays for rho mixing          88.99 Mb     (  729000,    8)

     Initial potential from superposition of free atoms
     Check: negative starting charge=   -0.000646

     starting charge   13.97327, renormalised to   14.00000

     negative rho (up, down):  6.473E-04 0.000E+00
     Starting wfc are random

     total cpu time spent up to now is        1.8 secs

     per-process dynamical memory:   141.6 Mb

     Self-consistent Calculation

     iteration #  1     ecut=    50.00 Ry     beta=0.20
     Davidson diagonalization with overlap
     ethr =  1.00E-02,  avg # of iterations =  9.0

     negative rho (up, down):  4.572E-04 0.000E+00

     total cpu time spent up to now is        5.0 secs

     total energy              =     -30.00255610 Ry
     Harris-Foulkes estimate   =     -30.24746584 Ry
     estimated scf accuracy    <       0.94615630 Ry

     iteration #  2     ecut=    50.00 Ry     beta=0.20
     Davidson diagonalization with overlap
     ethr =  6.76E-03,  avg # of iterations =  1.0

     negative rho (up, down):  1.416E-04 0.000E+00

     total cpu time spent up to now is        6.8 secs

     total energy              =     -29.79752714 Ry
     Harris-Foulkes estimate   =     -30.02807948 Ry
     estimated scf accuracy    <       0.40742265 Ry

     iteration #  3     ecut=    50.00 Ry     beta=0.20
     Davidson diagonalization with overlap
     ethr =  2.91E-03,  avg # of iterations =  2.0

     negative rho (up, down):  2.011E-04 0.000E+00

     total cpu time spent up to now is        8.8 secs

     total energy              =     -29.96659607 Ry
     Harris-Foulkes estimate   =     -29.91666304 Ry
     estimated scf accuracy    <       0.08221988 Ry

     iteration #  4     ecut=    50.00 Ry     beta=0.20
     Davidson diagonalization with overlap
     ethr =  5.87E-04,  avg # of iterations =  2.0

     negative rho (up, down):  1.326E-05 0.000E+00

     total cpu time spent up to now is       10.8 secs

     total energy              =     -29.84841660 Ry
     Harris-Foulkes estimate   =     -29.98372308 Ry
     estimated scf accuracy    <       0.30466170 Ry

     iteration #  5     ecut=    50.00 Ry     beta=0.20
     Davidson diagonalization with overlap
     ethr =  5.87E-04,  avg # of iterations =  2.0

     negative rho (up, down):  7.068E-07 0.000E+00

     total cpu time spent up to now is       12.8 secs

     total energy              =     -29.88863479 Ry
     Harris-Foulkes estimate   =     -29.89061529 Ry
     estimated scf accuracy    <       0.00585666 Ry

     iteration #  6     ecut=    50.00 Ry     beta=0.20
     Davidson diagonalization with overlap
     ethr =  4.18E-05,  avg # of iterations =  2.0

     negative rho (up, down):  1.628E-06 0.000E+00

     total cpu time spent up to now is       14.7 secs

     total energy              =     -29.88907712 Ry
     Harris-Foulkes estimate   =     -29.88945863 Ry
     estimated scf accuracy    <       0.00086915 Ry

     iteration #  7     ecut=    50.00 Ry     beta=0.20
     Davidson diagonalization with overlap
     ethr =  6.21E-06,  avg # of iterations =  3.0

     total cpu time spent up to now is       16.8 secs

     total energy              =     -29.88929630 Ry
     Harris-Foulkes estimate   =     -29.88934818 Ry
     estimated scf accuracy    <       0.00014290 Ry

     iteration #  8     ecut=    50.00 Ry     beta=0.20
     Davidson diagonalization with overlap
     ethr =  1.02E-06,  avg # of iterations =  2.0

     total cpu time spent up to now is       18.9 secs

     total energy              =     -29.88931260 Ry
     Harris-Foulkes estimate   =     -29.88932093 Ry
     estimated scf accuracy    <       0.00001895 Ry

     iteration #  9     ecut=    50.00 Ry     beta=0.20
     Davidson diagonalization with overlap
     ethr =  1.35E-07,  avg # of iterations =  2.0

     total cpu time spent up to now is       20.9 secs

     total energy              =     -29.88931515 Ry
     Harris-Foulkes estimate   =     -29.88931559 Ry
     estimated scf accuracy    <       0.00000221 Ry

     iteration # 10     ecut=    50.00 Ry     beta=0.20
     Davidson diagonalization with overlap
     ethr =  1.58E-08,  avg # of iterations =  2.0

     total cpu time spent up to now is       22.8 secs

     End of self-consistent calculation

          k = 0.0000 0.0000 0.0000 ( 20170 PWs)   bands (ev):

   -18.2509 -14.7974 -10.3314 -10.0627  -8.8030  -7.7619  -7.5269

     highest occupied level (ev):    -7.5269

!    total energy              =     -29.88931537 Ry
     Harris-Foulkes estimate   =     -29.88931562 Ry
     estimated scf accuracy    <       0.00000056 Ry

     The total energy is the sum of the following terms:

     one-electron contribution =     -88.39499619 Ry
     hartree contribution      =      45.80752741 Ry
     xc contribution           =     -11.28249666 Ry
     ewald contribution        =      23.98065008 Ry

     convergence has been achieved in  10 iterations

     Forces acting on atoms (Ry/au):

     atom    1 type  1   force =    -0.02890719   -0.02039711    0.00450552
     atom    2 type  1   force =     0.01769672    0.00881201    0.04484145
     atom    3 type  2   force =     0.01072232    0.00853099   -0.02118536
     atom    4 type  2   force =     0.04406804   -0.01004003    0.00191679
     atom    5 type  2   force =    -0.02926696    0.01000335    0.01038104
     atom    6 type  2   force =    -0.01005015    0.00815173   -0.02929279
     atom    7 type  2   force =    -0.00225811   -0.00118027    0.00314286
     atom    8 type  2   force =    -0.00200467   -0.00388066   -0.01430951

     Total force =     0.093202     Total SCF correction =     0.000573


     entering subroutine stress ...

          total   stress  (Ry/bohr**3)                   (kbar)     P=   -2.63
  -0.00003489   0.00000778   0.00000616         -5.13      1.14      0.91
   0.00000778  -0.00001390  -0.00000661          1.14     -2.04     -0.97
   0.00000616  -0.00000661  -0.00000492          0.91     -0.97     -0.72


     init_run     :      1.69s CPU      1.76s WALL (       1 calls)
     electrons    :     20.76s CPU     21.05s WALL (       1 calls)
     forces       :      1.13s CPU      1.14s WALL (       1 calls)
     stress       :      1.43s CPU      1.47s WALL (       1 calls)

     Called by init_run:
     wfcinit      :      0.18s CPU      0.19s WALL (       1 calls)
     potinit      :      1.18s CPU      1.22s WALL (       1 calls)

     Called by electrons:
     c_bands      :      6.66s CPU      6.69s WALL (      10 calls)
     sum_band     :      1.74s CPU      1.75s WALL (      10 calls)
     v_of_rho     :     12.41s CPU     12.62s WALL (      11 calls)
     mix_rho      :      0.82s CPU      0.86s WALL (      10 calls)

     Called by c_bands:
     init_us_2    :      0.27s CPU      0.28s WALL (      21 calls)
     regterg      :      6.14s CPU      6.17s WALL (      10 calls)

     Called by *egterg:
     h_psi        :      5.92s CPU      5.95s WALL (      38 calls)
     g_psi        :      0.08s CPU      0.08s WALL (      27 calls)
     rdiaghg      :      0.00s CPU      0.01s WALL (      37 calls)

     Called by h_psi:
     add_vuspsi   :      0.08s CPU      0.08s WALL (      38 calls)

     General routines
     calbec       :      0.11s CPU      0.11s WALL (      43 calls)
     fft          :      3.34s CPU      3.43s WALL (     128 calls)
     fftw         :      5.33s CPU      5.35s WALL (     312 calls)

     Parallel routines
     fft_scatter  :      2.03s CPU      2.07s WALL (     440 calls)

     PWSCF        :    25.04s CPU        25.50s WALL


   This run was terminated on:  16:12:40   4Jul2020            

=------------------------------------------------------------------------------=
   JOB DONE.
=------------------------------------------------------------------------------=
