
     Program PWSCF v.5.1.1 starts on  4Jul2020 at 17:33: 7 

     This program is part of the open-source Quantum ESPRESSO suite
     for quantum simulation of materials; please cite
         "P. Giannozzi et al., J. Phys.:Condens. Matter 21 395502 (2009);
          URL http://www.quantum-espresso.org", 
     in publications or presentations arising from this work. More details at
     http://www.quantum-espresso.org/quote

     Parallel version (MPI), running on     1 processors
     Waiting for input...
     Reading input from standard input
Warning: card &IONS ignored
Warning: card / ignored
Warning: card &CELL ignored
Warning: card / ignored

     Current dimensions of program PWSCF are:
     Max number of different atomic species (ntypx) = 10
     Max number of k-points (npk) =  40000
     Max angular momentum in pseudopotentials (lmaxx) =  3

     gamma-point specific algorithms are used

     Subspace diagonalization in iterative solution of the eigenvalue problem:
     a serial algorithm will be used


     G-vector sticks info
     --------------------
     sticks:   dense  smooth     PW     G-vecs:    dense   smooth      PW
     Sum        5689    5689   1433               322453   322453   40339
     Tot        2845    2845    717



     bravais-lattice index     =            1
     lattice parameter (alat)  =      18.8973  a.u.
     unit-cell volume          =    6748.3346 (a.u.)^3
     number of atoms/cell      =            8
     number of atomic types    =            2
     number of electrons       =        14.00
     number of Kohn-Sham states=            7
     kinetic-energy cutoff     =      50.0000  Ry
     charge density cutoff     =     200.0000  Ry
     convergence threshold     =      1.0E-06
     mixing beta               =       0.2000
     number of iterations used =            8  plain     mixing
     Exchange-correlation      = PBE ( 1  4  3  4 0 0)

     celldm(1)=  18.897261  celldm(2)=   0.000000  celldm(3)=   0.000000
     celldm(4)=   0.000000  celldm(5)=   0.000000  celldm(6)=   0.000000

     crystal axes: (cart. coord. in units of alat)
               a(1) = (   1.000000   0.000000   0.000000 )  
               a(2) = (   0.000000   1.000000   0.000000 )  
               a(3) = (   0.000000   0.000000   1.000000 )  

     reciprocal axes: (cart. coord. in units 2 pi/alat)
               b(1) = (  1.000000  0.000000  0.000000 )  
               b(2) = (  0.000000  1.000000  0.000000 )  
               b(3) = (  0.000000  0.000000  1.000000 )  


     PseudoPot. # 1 for C  read from file:
     ../../pseudo-potentials/C_ONCV_PBE-1.0.upf
     MD5 check sum: 40f8c33130f0afa4272e9dcc1c4fb0df
     Pseudo is Norm-conserving, Zval =  4.0
     Generated using ONCVPSP code by D. R. Hamann
     Using radial grid of  602 points,  4 beta functions with: 
                l(1) =   0
                l(2) =   0
                l(3) =   1
                l(4) =   1

     PseudoPot. # 2 for H  read from file:
     ../../pseudo-potentials/H_ONCV_PBE-1.0.upf
     MD5 check sum: 10f92816c437af099bca1a183851adc8
     Pseudo is Norm-conserving, Zval =  1.0
     Generated using ONCVPSP code by D. R. Hamann
     Using radial grid of  602 points,  2 beta functions with: 
                l(1) =   0
                l(2) =   0

     atomic species   valence    mass     pseudopotential
        C              4.00     1.00000     C ( 1.00)
        H              1.00     1.00000     H ( 1.00)

     No symmetry found



   Cartesian axes

     site n.     atom                  positions (alat units)
         1           C   tau(   1) = (   1.7417840   2.1874760   1.9841920  )
         2           C   tau(   2) = (   1.8531360   2.2931840   2.0149000  )
         3           H   tau(   3) = (   1.6479120   2.2319040   1.9423160  )
         4           H   tau(   4) = (   1.7067680   2.1509560   2.0798920  )
         5           H   tau(   5) = (   1.7793760   2.1051320   1.9254840  )
         6           H   tau(   6) = (   1.9456840   2.2778320   1.9639680  )
         7           H   tau(   7) = (   1.8861360   2.3050560   2.1191280  )
         8           H   tau(   8) = (   1.8078520   2.3798880   1.9800560  )

     number of k points=     1
                       cart. coord. in units 2pi/alat
        k(    1) = (   0.0000000   0.0000000   0.0000000), wk =   2.0000000

     Dense  grid:   161227 G-vectors     FFT dimensions: (  90,  90,  90)

     Largest allocated arrays     est. size (Mb)     dimensions
        Kohn-Sham Wavefunctions         2.15 Mb     (   20170,    7)
        NL pseudopotentials             8.62 Mb     (   20170,   28)
        Each V/rho on FFT grid         11.12 Mb     (  729000)
        Each G-vector array             1.23 Mb     (  161227)
        G-vector shells                 0.01 Mb     (    1510)
     Largest temporary arrays     est. size (Mb)     dimensions
        Auxiliary wavefunctions         4.31 Mb     (   20170,   28)
        Each subspace H/S matrix        0.01 Mb     (      28,   28)
        Each <psi_i|beta_j> matrix      0.00 Mb     (      28,    7)
        Arrays for rho mixing          88.99 Mb     (  729000,    8)

     Initial potential from superposition of free atoms
     Check: negative starting charge=   -0.000645

     starting charge   13.97327, renormalised to   14.00000

     negative rho (up, down):  6.460E-04 0.000E+00
     Starting wfc are random

     total cpu time spent up to now is        1.8 secs

     per-process dynamical memory:   141.6 Mb

     Self-consistent Calculation

     iteration #  1     ecut=    50.00 Ry     beta=0.20
     Davidson diagonalization with overlap
     ethr =  1.00E-02,  avg # of iterations =  9.0

     negative rho (up, down):  4.461E-04 0.000E+00

     total cpu time spent up to now is        4.9 secs

     total energy              =     -30.00371705 Ry
     Harris-Foulkes estimate   =     -30.25617253 Ry
     estimated scf accuracy    <       0.98404078 Ry

     iteration #  2     ecut=    50.00 Ry     beta=0.20
     Davidson diagonalization with overlap
     ethr =  7.03E-03,  avg # of iterations =  1.0

     negative rho (up, down):  1.330E-04 0.000E+00

     total cpu time spent up to now is        6.6 secs

     total energy              =     -29.77879240 Ry
     Harris-Foulkes estimate   =     -30.02996405 Ry
     estimated scf accuracy    <       0.43532337 Ry

     iteration #  3     ecut=    50.00 Ry     beta=0.20
     Davidson diagonalization with overlap
     ethr =  3.11E-03,  avg # of iterations =  2.0

     negative rho (up, down):  1.791E-04 0.000E+00

     total cpu time spent up to now is        8.6 secs

     total energy              =     -29.95040942 Ry
     Harris-Foulkes estimate   =     -29.90612259 Ry
     estimated scf accuracy    <       0.08241193 Ry

     iteration #  4     ecut=    50.00 Ry     beta=0.20
     Davidson diagonalization with overlap
     ethr =  5.89E-04,  avg # of iterations =  2.0

     negative rho (up, down):  2.127E-05 0.000E+00

     total cpu time spent up to now is       10.5 secs

     total energy              =     -29.85257364 Ry
     Harris-Foulkes estimate   =     -29.96406151 Ry
     estimated scf accuracy    <       0.27123825 Ry

     iteration #  5     ecut=    50.00 Ry     beta=0.20
     Davidson diagonalization with overlap
     ethr =  5.89E-04,  avg # of iterations =  2.0

     negative rho (up, down):  3.397E-06 0.000E+00

     total cpu time spent up to now is       12.4 secs

     total energy              =     -29.87816656 Ry
     Harris-Foulkes estimate   =     -29.88254545 Ry
     estimated scf accuracy    <       0.01452851 Ry

     iteration #  6     ecut=    50.00 Ry     beta=0.20
     Davidson diagonalization with overlap
     ethr =  1.04E-04,  avg # of iterations =  1.0

     negative rho (up, down):  1.409E-06 0.000E+00

     total cpu time spent up to now is       14.2 secs

     total energy              =     -29.87716370 Ry
     Harris-Foulkes estimate   =     -29.87902672 Ry
     estimated scf accuracy    <       0.00412891 Ry

     iteration #  7     ecut=    50.00 Ry     beta=0.20
     Davidson diagonalization with overlap
     ethr =  2.95E-05,  avg # of iterations =  2.0

     negative rho (up, down):  1.463E-08 0.000E+00

     total cpu time spent up to now is       16.2 secs

     total energy              =     -29.87836018 Ry
     Harris-Foulkes estimate   =     -29.87844817 Ry
     estimated scf accuracy    <       0.00020227 Ry

     iteration #  8     ecut=    50.00 Ry     beta=0.20
     Davidson diagonalization with overlap
     ethr =  1.44E-06,  avg # of iterations =  2.0

     negative rho (up, down):  2.529E-08 0.000E+00

     total cpu time spent up to now is       18.2 secs

     total energy              =     -29.87841668 Ry
     Harris-Foulkes estimate   =     -29.87841968 Ry
     estimated scf accuracy    <       0.00001232 Ry

     iteration #  9     ecut=    50.00 Ry     beta=0.20
     Davidson diagonalization with overlap
     ethr =  8.80E-08,  avg # of iterations =  2.0

     total cpu time spent up to now is       20.2 secs

     total energy              =     -29.87841908 Ry
     Harris-Foulkes estimate   =     -29.87841896 Ry
     estimated scf accuracy    <       0.00000418 Ry

     iteration # 10     ecut=    50.00 Ry     beta=0.20
     Davidson diagonalization with overlap
     ethr =  2.98E-08,  avg # of iterations =  2.0

     total cpu time spent up to now is       22.2 secs

     total energy              =     -29.87841941 Ry
     Harris-Foulkes estimate   =     -29.87842010 Ry
     estimated scf accuracy    <       0.00000363 Ry

     iteration # 11     ecut=    50.00 Ry     beta=0.20
     Davidson diagonalization with overlap
     ethr =  2.59E-08,  avg # of iterations =  1.0

     total cpu time spent up to now is       24.0 secs

     total energy              =     -29.87841857 Ry
     Harris-Foulkes estimate   =     -29.87841947 Ry
     estimated scf accuracy    <       0.00000203 Ry

     iteration # 12     ecut=    50.00 Ry     beta=0.20
     Davidson diagonalization with overlap
     ethr =  1.45E-08,  avg # of iterations =  2.0

     total cpu time spent up to now is       25.7 secs

     End of self-consistent calculation

          k = 0.0000 0.0000 0.0000 ( 20170 PWs)   bands (ev):

   -18.2118 -14.9125 -10.4959 -10.0795  -8.6835  -7.9495  -7.5110

     highest occupied level (ev):    -7.5110

!    total energy              =     -29.87841893 Ry
     Harris-Foulkes estimate   =     -29.87841896 Ry
     estimated scf accuracy    <       0.00000003 Ry

     The total energy is the sum of the following terms:

     one-electron contribution =     -88.81056247 Ry
     hartree contribution      =      46.03362005 Ry
     xc contribution           =     -11.34534399 Ry
     ewald contribution        =      24.24386748 Ry

     convergence has been achieved in  12 iterations

     Forces acting on atoms (Ry/au):

     atom    1 type  1   force =     0.00309577    0.02930565    0.03997316
     atom    2 type  1   force =    -0.02186195   -0.05506627    0.01471086
     atom    3 type  2   force =     0.03367392   -0.00601963   -0.00979760
     atom    4 type  2   force =    -0.00406328   -0.02519843    0.01530916
     atom    5 type  2   force =    -0.00380579   -0.01555122   -0.01412384
     atom    6 type  2   force =     0.02464379   -0.01092158   -0.03485534
     atom    7 type  2   force =    -0.02409808   -0.00607105    0.00459578
     atom    8 type  2   force =    -0.00758437    0.08952252   -0.01581219

     Total force =     0.140366     Total SCF correction =     0.000177


     entering subroutine stress ...

          total   stress  (Ry/bohr**3)                   (kbar)     P=   -0.77
  -0.00002860  -0.00000585  -0.00001652         -4.21     -0.86     -2.43
  -0.00000585   0.00001702  -0.00001073         -0.86      2.50     -1.58
  -0.00001652  -0.00001073  -0.00000406         -2.43     -1.58     -0.60


     init_run     :      1.68s CPU      1.73s WALL (       1 calls)
     electrons    :     23.61s CPU     23.94s WALL (       1 calls)
     forces       :      0.97s CPU      0.97s WALL (       1 calls)
     stress       :      1.23s CPU      1.26s WALL (       1 calls)

     Called by init_run:
     wfcinit      :      0.16s CPU      0.16s WALL (       1 calls)
     potinit      :      1.19s CPU      1.22s WALL (       1 calls)

     Called by electrons:
     c_bands      :      7.30s CPU      7.36s WALL (      12 calls)
     sum_band     :      2.04s CPU      2.05s WALL (      12 calls)
     v_of_rho     :     14.02s CPU     14.22s WALL (      13 calls)
     mix_rho      :      1.11s CPU      1.18s WALL (      12 calls)

     Called by c_bands:
     init_us_2    :      0.31s CPU      0.31s WALL (      25 calls)
     regterg      :      6.71s CPU      6.76s WALL (      12 calls)

     Called by *egterg:
     h_psi        :      6.45s CPU      6.49s WALL (      41 calls)
     g_psi        :      0.08s CPU      0.08s WALL (      28 calls)
     rdiaghg      :      0.01s CPU      0.01s WALL (      40 calls)

     Called by h_psi:
     add_vuspsi   :      0.09s CPU      0.09s WALL (      41 calls)

     General routines
     calbec       :      0.12s CPU      0.12s WALL (      46 calls)
     fft          :      3.75s CPU      3.83s WALL (     150 calls)
     fftw         :      5.83s CPU      5.86s WALL (     354 calls)

     Parallel routines
     fft_scatter  :      2.26s CPU      2.31s WALL (     504 calls)

     PWSCF        :    27.52s CPU        27.94s WALL


   This run was terminated on:  17:33:35   4Jul2020            

=------------------------------------------------------------------------------=
   JOB DONE.
=------------------------------------------------------------------------------=
