
     Program PWSCF v.5.1.1 starts on  4Jul2020 at 17:33: 8 

     This program is part of the open-source Quantum ESPRESSO suite
     for quantum simulation of materials; please cite
         "P. Giannozzi et al., J. Phys.:Condens. Matter 21 395502 (2009);
          URL http://www.quantum-espresso.org", 
     in publications or presentations arising from this work. More details at
     http://www.quantum-espresso.org/quote

     Parallel version (MPI), running on     1 processors
     Waiting for input...
     Reading input from standard input
Warning: card &IONS ignored
Warning: card / ignored
Warning: card &CELL ignored
Warning: card / ignored

     Current dimensions of program PWSCF are:
     Max number of different atomic species (ntypx) = 10
     Max number of k-points (npk) =  40000
     Max angular momentum in pseudopotentials (lmaxx) =  3

     gamma-point specific algorithms are used

     Subspace diagonalization in iterative solution of the eigenvalue problem:
     a serial algorithm will be used


     G-vector sticks info
     --------------------
     sticks:   dense  smooth     PW     G-vecs:    dense   smooth      PW
     Sum        5689    5689   1433               322453   322453   40339
     Tot        2845    2845    717



     bravais-lattice index     =            1
     lattice parameter (alat)  =      18.8973  a.u.
     unit-cell volume          =    6748.3346 (a.u.)^3
     number of atoms/cell      =            8
     number of atomic types    =            2
     number of electrons       =        14.00
     number of Kohn-Sham states=            7
     kinetic-energy cutoff     =      50.0000  Ry
     charge density cutoff     =     200.0000  Ry
     convergence threshold     =      1.0E-06
     mixing beta               =       0.2000
     number of iterations used =            8  plain     mixing
     Exchange-correlation      = PBE ( 1  4  3  4 0 0)

     celldm(1)=  18.897261  celldm(2)=   0.000000  celldm(3)=   0.000000
     celldm(4)=   0.000000  celldm(5)=   0.000000  celldm(6)=   0.000000

     crystal axes: (cart. coord. in units of alat)
               a(1) = (   1.000000   0.000000   0.000000 )  
               a(2) = (   0.000000   1.000000   0.000000 )  
               a(3) = (   0.000000   0.000000   1.000000 )  

     reciprocal axes: (cart. coord. in units 2 pi/alat)
               b(1) = (  1.000000  0.000000  0.000000 )  
               b(2) = (  0.000000  1.000000  0.000000 )  
               b(3) = (  0.000000  0.000000  1.000000 )  


     PseudoPot. # 1 for C  read from file:
     ../../pseudo-potentials/C_ONCV_PBE-1.0.upf
     MD5 check sum: 40f8c33130f0afa4272e9dcc1c4fb0df
     Pseudo is Norm-conserving, Zval =  4.0
     Generated using ONCVPSP code by D. R. Hamann
     Using radial grid of  602 points,  4 beta functions with: 
                l(1) =   0
                l(2) =   0
                l(3) =   1
                l(4) =   1

     PseudoPot. # 2 for H  read from file:
     ../../pseudo-potentials/H_ONCV_PBE-1.0.upf
     MD5 check sum: 10f92816c437af099bca1a183851adc8
     Pseudo is Norm-conserving, Zval =  1.0
     Generated using ONCVPSP code by D. R. Hamann
     Using radial grid of  602 points,  2 beta functions with: 
                l(1) =   0
                l(2) =   0

     atomic species   valence    mass     pseudopotential
        C              4.00     1.00000     C ( 1.00)
        H              1.00     1.00000     H ( 1.00)

     No symmetry found



   Cartesian axes

     site n.     atom                  positions (alat units)
         1           C   tau(   1) = (   1.7386000   2.1896920   1.9823200  )
         2           C   tau(   2) = (   1.8551560   2.2900360   2.0182560  )
         3           H   tau(   3) = (   1.6859760   2.2322200   1.8972880  )
         4           H   tau(   4) = (   1.6685200   2.1955520   2.0654640  )
         5           H   tau(   5) = (   1.7743720   2.0935080   1.9491560  )
         6           H   tau(   6) = (   1.8512320   2.3966120   1.9804440  )
         7           H   tau(   7) = (   1.9479720   2.2512600   1.9741800  )
         8           H   tau(   8) = (   1.8595160   2.2927320   2.1266320  )

     number of k points=     1
                       cart. coord. in units 2pi/alat
        k(    1) = (   0.0000000   0.0000000   0.0000000), wk =   2.0000000

     Dense  grid:   161227 G-vectors     FFT dimensions: (  90,  90,  90)

     Largest allocated arrays     est. size (Mb)     dimensions
        Kohn-Sham Wavefunctions         2.15 Mb     (   20170,    7)
        NL pseudopotentials             8.62 Mb     (   20170,   28)
        Each V/rho on FFT grid         11.12 Mb     (  729000)
        Each G-vector array             1.23 Mb     (  161227)
        G-vector shells                 0.01 Mb     (    1510)
     Largest temporary arrays     est. size (Mb)     dimensions
        Auxiliary wavefunctions         4.31 Mb     (   20170,   28)
        Each subspace H/S matrix        0.01 Mb     (      28,   28)
        Each <psi_i|beta_j> matrix      0.00 Mb     (      28,    7)
        Arrays for rho mixing          88.99 Mb     (  729000,    8)

     Initial potential from superposition of free atoms
     Check: negative starting charge=   -0.000633

     starting charge   13.97327, renormalised to   14.00000

     negative rho (up, down):  6.345E-04 0.000E+00
     Starting wfc are random

     total cpu time spent up to now is        2.1 secs

     per-process dynamical memory:   141.6 Mb

     Self-consistent Calculation

     iteration #  1     ecut=    50.00 Ry     beta=0.20
     Davidson diagonalization with overlap
     ethr =  1.00E-02,  avg # of iterations =  9.0

     negative rho (up, down):  4.381E-04 0.000E+00

     total cpu time spent up to now is        5.4 secs

     total energy              =     -30.00055455 Ry
     Harris-Foulkes estimate   =     -30.24113820 Ry
     estimated scf accuracy    <       0.93562528 Ry

     iteration #  2     ecut=    50.00 Ry     beta=0.20
     Davidson diagonalization with overlap
     ethr =  6.68E-03,  avg # of iterations =  1.0

     negative rho (up, down):  1.335E-04 0.000E+00

     total cpu time spent up to now is        7.2 secs

     total energy              =     -29.79502161 Ry
     Harris-Foulkes estimate   =     -30.02540781 Ry
     estimated scf accuracy    <       0.40764352 Ry

     iteration #  3     ecut=    50.00 Ry     beta=0.20
     Davidson diagonalization with overlap
     ethr =  2.91E-03,  avg # of iterations =  2.0

     negative rho (up, down):  1.870E-04 0.000E+00

     total cpu time spent up to now is        9.3 secs

     total energy              =     -29.95116978 Ry
     Harris-Foulkes estimate   =     -29.90997240 Ry
     estimated scf accuracy    <       0.07647174 Ry

     iteration #  4     ecut=    50.00 Ry     beta=0.20
     Davidson diagonalization with overlap
     ethr =  5.46E-04,  avg # of iterations =  2.0

     negative rho (up, down):  1.411E-05 0.000E+00

     total cpu time spent up to now is       11.3 secs

     total energy              =     -29.85524654 Ry
     Harris-Foulkes estimate   =     -29.96422279 Ry
     estimated scf accuracy    <       0.25386632 Ry

     iteration #  5     ecut=    50.00 Ry     beta=0.20
     Davidson diagonalization with overlap
     ethr =  5.46E-04,  avg # of iterations =  2.0

     negative rho (up, down):  1.433E-06 0.000E+00

     total cpu time spent up to now is       13.3 secs

     total energy              =     -29.88435629 Ry
     Harris-Foulkes estimate   =     -29.88640611 Ry
     estimated scf accuracy    <       0.00823348 Ry

     iteration #  6     ecut=    50.00 Ry     beta=0.20
     Davidson diagonalization with overlap
     ethr =  5.88E-05,  avg # of iterations =  1.0

     negative rho (up, down):  4.461E-07 0.000E+00

     total cpu time spent up to now is       15.1 secs

     total energy              =     -29.88312616 Ry
     Harris-Foulkes estimate   =     -29.88482089 Ry
     estimated scf accuracy    <       0.00339319 Ry

     iteration #  7     ecut=    50.00 Ry     beta=0.20
     Davidson diagonalization with overlap
     ethr =  2.42E-05,  avg # of iterations =  2.0

     total cpu time spent up to now is       17.2 secs

     total energy              =     -29.88418035 Ry
     Harris-Foulkes estimate   =     -29.88427043 Ry
     estimated scf accuracy    <       0.00018085 Ry

     iteration #  8     ecut=    50.00 Ry     beta=0.20
     Davidson diagonalization with overlap
     ethr =  1.29E-06,  avg # of iterations =  2.0

     negative rho (up, down):  1.719E-08 0.000E+00

     total cpu time spent up to now is       19.2 secs

     total energy              =     -29.88423678 Ry
     Harris-Foulkes estimate   =     -29.88424119 Ry
     estimated scf accuracy    <       0.00001303 Ry

     iteration #  9     ecut=    50.00 Ry     beta=0.20
     Davidson diagonalization with overlap
     ethr =  9.31E-08,  avg # of iterations =  2.0

     total cpu time spent up to now is       21.3 secs

     total energy              =     -29.88423909 Ry
     Harris-Foulkes estimate   =     -29.88423984 Ry
     estimated scf accuracy    <       0.00000349 Ry

     iteration # 10     ecut=    50.00 Ry     beta=0.20
     Davidson diagonalization with overlap
     ethr =  2.49E-08,  avg # of iterations =  2.0

     total cpu time spent up to now is       23.3 secs

     total energy              =     -29.88423938 Ry
     Harris-Foulkes estimate   =     -29.88424083 Ry
     estimated scf accuracy    <       0.00000407 Ry

     iteration # 11     ecut=    50.00 Ry     beta=0.20
     Davidson diagonalization with overlap
     ethr =  2.49E-08,  avg # of iterations =  1.0

     total cpu time spent up to now is       24.9 secs

     End of self-consistent calculation

          k = 0.0000 0.0000 0.0000 ( 20170 PWs)   bands (ev):

   -18.1048 -14.7607 -10.5660  -9.9641  -8.4218  -8.0628  -7.5146

     highest occupied level (ev):    -7.5146

!    total energy              =     -29.88423914 Ry
     Harris-Foulkes estimate   =     -29.88423965 Ry
     estimated scf accuracy    <       0.00000071 Ry

     The total energy is the sum of the following terms:

     one-electron contribution =     -87.94851561 Ry
     hartree contribution      =      45.59501994 Ry
     xc contribution           =     -11.27934267 Ry
     ewald contribution        =      23.74859919 Ry

     convergence has been achieved in  11 iterations

     Forces acting on atoms (Ry/au):

     atom    1 type  1   force =     0.01678257    0.09804837   -0.01186712
     atom    2 type  1   force =    -0.00358193   -0.01203439   -0.02997131
     atom    3 type  2   force =    -0.01376576   -0.00073158   -0.01579965
     atom    4 type  2   force =    -0.00767549   -0.03120846    0.00271024
     atom    5 type  2   force =     0.00247693   -0.02335711    0.01832714
     atom    6 type  2   force =    -0.02348562   -0.03714859    0.00973912
     atom    7 type  2   force =     0.00747622    0.00047519    0.01482178
     atom    8 type  2   force =     0.02177309    0.00595658    0.01203981

     Total force =     0.128125     Total SCF correction =     0.000696


     entering subroutine stress ...

          total   stress  (Ry/bohr**3)                   (kbar)     P=   -2.65
  -0.00000846  -0.00000856   0.00000999         -1.25     -1.26      1.47
  -0.00000856  -0.00003331  -0.00000318         -1.26     -4.90     -0.47
   0.00000999  -0.00000318  -0.00001227          1.47     -0.47     -1.81


     init_run     :      1.99s CPU      2.08s WALL (       1 calls)
     electrons    :     22.46s CPU     22.76s WALL (       1 calls)
     forces       :      0.96s CPU      0.97s WALL (       1 calls)
     stress       :      1.23s CPU      1.26s WALL (       1 calls)

     Called by init_run:
     wfcinit      :      0.24s CPU      0.25s WALL (       1 calls)
     potinit      :      1.41s CPU      1.46s WALL (       1 calls)

     Called by electrons:
     c_bands      :      7.03s CPU      7.07s WALL (      11 calls)
     sum_band     :      1.89s CPU      1.90s WALL (      11 calls)
     v_of_rho     :     13.64s CPU     13.85s WALL (      12 calls)
     mix_rho      :      0.96s CPU      1.01s WALL (      11 calls)

     Called by c_bands:
     init_us_2    :      0.29s CPU      0.30s WALL (      23 calls)
     regterg      :      6.47s CPU      6.51s WALL (      11 calls)

     Called by *egterg:
     h_psi        :      6.29s CPU      6.32s WALL (      38 calls)
     g_psi        :      0.08s CPU      0.08s WALL (      26 calls)
     rdiaghg      :      0.01s CPU      0.01s WALL (      37 calls)

     Called by h_psi:
     add_vuspsi   :      0.09s CPU      0.09s WALL (      38 calls)

     General routines
     calbec       :      0.11s CPU      0.12s WALL (      43 calls)
     fft          :      3.63s CPU      3.71s WALL (     139 calls)
     fftw         :      5.65s CPU      5.67s WALL (     330 calls)

     Parallel routines
     fft_scatter  :      2.30s CPU      2.35s WALL (     469 calls)

     PWSCF        :    26.67s CPU        27.11s WALL


   This run was terminated on:  17:33:36   4Jul2020            

=------------------------------------------------------------------------------=
   JOB DONE.
=------------------------------------------------------------------------------=
