  -405.80283390
  -405.67588090
  -406.12355000
  -405.05108833
  -406.38757946
  -405.76105720
  -405.69339892
  -405.42308730
  -406.66619626
  -406.44157898
  -405.56893794
  -406.51238534
  -406.33530786
  -405.86472350
  -406.40505026
  -406.13280296
  -406.51392782
  -406.15608980
  -405.92920512
  -405.76586559
  -406.26289548
  -405.07407924
  -405.90409009
  -406.41052288
  -406.43565397
  -406.65546640
  -405.91792709
  -405.01849371
  -405.93339826
  -406.58015138
  -406.47640997
  -406.24712307
  -405.83576894
  -405.54495694
  -405.69032607
  -406.10111339
  -406.36573741
  -406.12036572
  -405.90473133
  -405.93918177
  -406.28689920
  -405.73614870
  -405.86718845
  -405.10291189
  -406.13811844
  -405.38751412
  -405.73974646
  -405.83030272
  -405.98262844
  -406.10595647
  -406.27270219
  -406.10760263
  -405.92344066
  -405.80130571
  -405.99544528
  -406.20326170
  -405.75645942
  -405.98214938
  -406.03145902
  -406.50190977
  -406.26476204
  -406.29579283
  -406.34874866
  -405.68215966
  -406.33964495
  -406.46497642
  -405.53137614
  -405.96085987
  -406.31631866
  -406.30263759
  -405.69224475
  -405.56370559
  -406.03498806
  -405.36929405
  -406.70106603
  -405.61181194
  -405.95785668
  -405.65697415
  -406.23365112
  -405.68901625
  -405.55368309
  -406.24864596
  -406.22566757
  -405.52086669
  -405.90056309
  -406.02107705
  -405.41305419
  -405.85504563
  -406.43863443
  -406.05415074
  -406.17679209
  -406.02994321
  -406.44933586
  -406.13474232
  -406.25924276
  -406.45677817
  -406.21071314
  -406.04149023
  -405.95555446
  -406.36483454
  -406.22829211
  -405.92460313
  -405.78204630
  -405.64344954
  -406.28893801
  -406.10029405
  -404.94876519
  -406.18252512
  -405.60145120
  -406.48415828
  -406.57252443
  -406.17490525
  -406.44361820
  -406.46541221
  -406.16648101
  -405.75573288
  -405.74186201
  -406.07912753
  -405.73440989
  -406.65806944
  -405.00842413
  -405.89701526
  -405.95884078
  -406.14836938
  -405.52148371
  -405.89977423
  -406.21238201
  -406.03333456
  -406.44769664
  -405.44414498
  -406.46646761
  -405.83465790
  -406.25116573
  -406.03481840
  -405.84628710
  -406.03070050
  -406.11474399
  -406.24767288
  -405.77039003
  -406.25153799
  -406.28915951
  -406.24739791
  -405.69044022
  -406.16601937
  -405.55394459
  -405.89678397
  -405.77476630
  -404.35767488
  -405.72763888
  -406.05262513
  -406.20415832
  -405.94450323
  -405.90204366
  -405.70938507
  -406.04228385
  -406.16129819
  -406.05369984
  -405.42496843
  -406.28849324
  -405.75838844
  -406.29051736
  -406.51147852
  -406.48703657
  -406.38966276
  -406.56695290
  -406.04998807
  -406.38728598
  -406.44646342
  -405.37889831
  -406.21075287
  -405.69857602
  -406.09500974
  -406.26575431
  -406.34254895
  -406.14650105
  -405.51697968
  -406.13739897
  -406.39300119
  -406.28473548
  -406.33536922
  -406.30934452
  -406.44246199
  -405.89714860
  -405.57131363
  -406.23118522
  -406.11305089
  -406.27272070
  -405.27680537
  -406.56632418
  -406.15894713
  -406.30992466
  -405.77249768
  -406.05160008
  -406.47023421
  -405.84177708
  -406.25909745
  -405.93816434
  -406.42766416
  -406.47399986
  -406.18177178
  -405.74285754
  -406.45921182
  -406.01681208
  -405.94872535
  -406.23526639
  -406.37063193
  -406.36572136
  -406.12733021
  -406.28932686
  -405.74581800
  -406.46260100
  -406.43371720
  -406.39392624
  -405.38534741
  -405.73258578
  -406.18838401
  -406.02655688
  -406.42167370
  -406.59455641
  -406.72833376
  -406.27999498
  -405.47249082
  -406.43325596
  -405.73380594
  -406.02797378
  -406.37118840
  -406.18616859
  -406.41022532
  -406.40773045
  -405.55116971
  -406.30808572
  -406.23993137
  -405.83213595
  -406.06842461
  -406.24341130
  -405.47776684
  -406.14696514
  -406.65332010
  -406.33491724
  -406.40423514
  -405.82149248
  -405.89656301
  -406.48048801
  -406.14911701
  -405.87605528
  -406.21183629
  -405.89935313
  -405.95351347
  -405.39535168
  -406.39219424
  -405.64519869
  -404.86671929
  -406.28072166
  -405.60284592
  -406.28853950
  -405.63509877
  -406.19360370
  -406.15743989
  -405.86716572
  -405.76157612
  -405.98288178
  -405.81023812
  -406.15717145
  -406.60441687
  -405.90114432
  -406.55137342
  -405.94157842
  -406.62232959
  -406.22316698
  -406.18143476
  -406.26756876
  -406.23496815
  -405.31112384
  -405.38815794
  -406.39243002
  -406.40789467
  -405.67336480
  -406.37692062
  -405.93914232
  -406.29149357
  -406.21099287
  -405.67478796
  -406.16826907
  -406.03356450
  -405.62875457
  -405.60416119
  -406.26774441
  -406.07422472
  -406.16180678
  -406.22566648
  -406.19651913
  -405.66258677
  -406.18420883
  -406.45249809
  -405.39025594
  -405.93865754
  -405.98491923
  -406.33760750
  -405.12254886
  -406.05767965
  -405.68211177
  -406.17023346
  -405.95157643
  -406.28297790
  -405.81908428
  -405.72887700
  -406.14628254
  -405.53097627
  -405.58061993
  -406.32469297
  -406.22507395
  -405.48294054
  -406.21496043
  -405.83428388
  -406.06912435
  -405.48009436
  -406.22688609
  -405.99064111
  -406.09418986
  -406.30263228
  -406.06362955
  -406.33275366
  -405.85698363
  -405.66134308
  -405.96757510
  -405.48839193
  -405.71486123
  -405.70452212
  -406.45351267
  -406.17788164
  -406.42700292
  -405.90422003
  -406.37143276
  -406.12178044
  -405.79369577
  -406.43922614
  -405.46840312
  -406.50500071
  -405.95741014
  -406.32437283
  -406.10030888
  -405.90302449
  -406.36513903
  -406.27723384
  -406.28421833
  -406.05718045
  -406.35878545
  -406.06371813
  -405.62910900
  -405.50022318
  -405.45902948
  -405.77510440
  -406.22279132
  -405.99851799
  -405.50788332
  -406.22675317
  -405.58988187
  -405.99594039
  -406.40741452
  -405.71323398
  -405.62449096
  -406.28495385
  -406.06703057
  -405.65074791
  -405.91126546
  -405.55773269
  -405.89890578
  -406.47592370
  -405.86031063
  -405.45321250
  -406.35836408
  -404.59081750
  -405.83673236
  -406.54125119
  -405.56579638
  -405.89575184
  -405.68713553
  -405.66035939
  -405.59056474
  -406.24051778
  -406.09538049
  -406.04004925
  -406.04659699
  -406.41889365
  -406.14761807
  -406.34828185
  -406.10376446
  -405.78877296
  -406.18575416
  -406.05179804
  -406.15019771
  -406.31357466
  -406.00649120
  -406.41055608
  -406.19293539
  -406.12455124
  -406.12676067
  -406.07727144
  -405.99629740
  -406.16280054
  -406.43409244
  -406.72978943
  -406.59291965
  -406.62483453
  -406.72903309
  -406.55645964
  -406.65608818
  -406.58558359
  -406.63883343
  -406.22717249
  -406.63557269
  -406.23116345
  -406.52683908
  -406.55586249
  -406.54324279
  -406.62074969
  -406.67574392
  -406.39307589
  -406.55481988
  -406.70708832
  -406.67490323
  -406.53754881
  -406.44781488
  -406.57258307
  -406.46587848
  -406.60683066
  -406.62687566
  -406.63062865
  -406.62961653
  -406.42608549
  -406.56643738
  -406.55245766
  -406.54152725
  -406.61884054
  -406.58626238
  -406.59063593
  -406.61434114
  -406.52730127
  -406.53512727
  -406.70073977
  -406.58211046
  -406.62667035
  -406.47804456
  -406.66500032
  -406.67124738
  -406.43869484
  -406.53902312
  -406.25021578
  -406.56155729
  -406.62953693
  -406.39799734
  -406.28591374
  -406.51202016
  -406.47292120
  -406.67123309
  -406.62222482
  -406.55036919
  -406.33325354
  -406.56011944
  -406.32423037
  -406.65684915
  -406.51428511
  -406.60799843
  -406.36424473
  -406.43261799
  -406.45831208
  -406.57426542
  -406.55860431
  -406.54673606
  -406.44733160
  -406.63630033
  -406.71721042
  -406.71387920
  -406.56237159
  -406.54329626
  -406.54898481
  -406.46985624
  -406.50206923
  -406.42229113
  -406.58296395
  -406.45632850
  -406.48221607
  -406.62705621
  -406.67043457
  -406.61202898
  -406.48112557
  -406.56035618
  -406.65489455
  -406.34103069
  -406.49701145
  -406.58423445
  -406.65899191
  -406.57229518
  -406.63180119
  -406.52152266
  -406.67381709
  -406.52153694
  -406.60311848
  -406.55331944
  -406.33076696
  -406.53834052
  -406.57578966
  -406.66254041
  -406.67891922
  -406.53831114
  -406.63949263
  -406.36924864
  -406.44684112
  -406.48783386
  -406.61882013
  -406.61010623
  -406.60689828
  -406.59253528
  -406.49793174
  -406.48710595
  -406.66667124
  -406.48698595
  -406.55032483
  -406.56095782
  -406.50680592
  -406.63957154
