  9.93422823  -4.58398676  -6.71553765  -2.67820836  -0.03766988  -0.37005333  -1.34293485   1.69631155   0.31060113  -0.45699157   0.54559047   0.94051606  -7.83044903   2.42571243   5.07503480   0.69454943   0.06180681  -0.61839746   0.81293010   0.54962272   1.27362842   0.86687605  -0.65738785   0.10420828 
 -5.51451669   8.80662387  -4.05696808   2.06353282  -3.58032821   2.40137316   3.14815799  -5.35263078   2.66130058  -0.28667838  -1.02730775   1.67283977   0.87040050  -1.30517704  -1.39159566   1.05197406   0.16300537  -0.53374107   0.33110099   0.63683709   0.35913055  -1.66397129   1.65897745  -1.11233926 
  0.12519870   2.40160353   5.20799383   2.63577835  -5.34895360   2.59920915   0.51710377  -1.22417341   0.25965591  -1.65685836  -1.16263322  -4.74263464   0.89515835  -0.11195885  -0.66462086  -0.90199232   0.76540701   0.90235561   0.11490429   0.40383752  -1.80787471  -1.72929253   4.27687127  -1.75408431 
  1.75856419 -10.73258768  -4.24079983   6.00343098   8.45585117   0.93444519  -1.06990693   2.31401841  -1.25371194  -0.03284574   0.90238338   2.15956579  -6.19449933   1.25952211   3.44070361  -0.49376517   0.02654270   0.15209287  -0.81781467  -0.52869272  -1.71153398   0.84683642  -1.69703737   0.51923855 
 -3.02075329  -1.63146931   2.97906581   1.17551080   0.65571818   0.35085908  -0.36763342   1.15746815  -1.01699277   0.73676527   0.18183015   0.08225499   1.23139124  -0.43412708  -0.88948600   1.53348488   0.12652641  -1.10464397  -1.46991789  -0.12795568  -1.05406128   0.18115215   0.07200891   0.65300414 
 -7.88742552  -7.51210761  -1.77734964   5.95329231   3.39156227  -0.46396103   0.66274216   1.53440738   0.25756870   0.99943836   1.13563749   1.30841636   1.33423581   0.18304834  -0.18342835  -1.58559172   1.01031924   0.41218715   0.30095207   0.80853662   0.46762767   0.22235678  -0.55140346  -0.02106087 
 -1.28816462   1.71263080   8.66479044   1.60785328   1.46429799  -4.21747486   0.33294215  -0.42609883  -0.18457968  -2.39153564  -1.60735012  -6.90925166   1.63516551  -0.82724879  -1.56653913  -1.84466450   1.11423595   1.64893810   0.71665468   0.60021416   1.41588710   1.23174914  -2.03068117   1.14822969 
  3.87075267  -3.52529675  -2.97026933   5.93512213  -7.24084218   6.14549889  -1.55603518   1.81873758  -1.39154835   0.22346981   0.38789262   2.27945569  -2.97663021   0.66469439   1.74663919  -1.15532231  -0.31844734   0.20163813  -0.99704853  -0.06094884  -1.96345243  -3.34430863   8.27421025  -4.04796179 
  1.01498809  -2.05051280  -1.82410191   0.10234115   3.38772594  -0.71142970  -0.81808309   0.22337673   0.09820400   0.13009664   0.32865845   0.81087348  -1.26849677   0.08493072   0.95683198   0.35952701  -0.41819272   0.13612303   0.27042700  -0.12969143  -0.22754525   0.20919997  -1.42629490   0.76104412 
 -3.08491574  -0.87192413   1.33770679   0.01694506   0.90532780  -1.91835157  -0.06513252   0.38295817  -0.01330979   0.11114844   0.06189037   0.38139726   2.46420404  -0.78096702  -1.39891376  -0.48730786   0.22658777   1.23658408   0.14711189   0.00274053  -0.42009378   0.89794670   0.07338651   0.79498077 
 -5.86783246  -4.92244571   1.31904938  -0.56519816   7.25942477   5.62064455  -0.56688891   0.21026981  -0.33260353   0.07071360  -0.23977878   0.16406029   1.73328004  -0.75682264  -0.89497066   6.07346246  -1.33108391  -3.19443796  -0.71559307  -0.98119156  -2.38813511  -0.16194350   0.76162853  -0.29360722 
  2.85664955  -1.24070220   1.45595659  -1.63862955   1.75841506  -3.93849305  -0.52476229  -0.14372910   0.07355954  -0.47260634   0.19381197  -1.33827526  -1.56883640   0.39027551   0.88048408  -0.15321129   0.31539802   0.73303461   0.43080805  -0.06490729   1.23324346   1.07058802  -1.20856197   0.90049029 
 -0.48246135  -3.33293282  -1.79926231  -0.24350455   5.33974188   1.04618550  -0.17561350  -0.49356488   0.82757994   0.00297450   0.62392557   0.10725194  -1.70905261   0.21797203   1.26248092   1.42193972   0.06132833  -0.26729129   0.30492467  -0.85655130  -1.55276397   0.88079313  -1.55991907   0.37581953 
  3.23487485   1.98596777  -3.95910424   0.76337867  -6.61532716  -3.45250956   0.07092726  -0.41311763   0.82576655  -0.19818052   0.56182231   1.96612663  -2.69725375   0.01495375   1.40922977  -1.18698277   1.41416601   0.72524085   1.26158309   0.64159413   3.78360180  -1.24834684   2.40994057  -1.29835232 
  4.09917903   0.28945310  -1.55887778  -0.02028774   0.80275834   3.07116321  -1.32445357   0.51353200   0.17098296  -0.46711268  -0.80391919  -0.92772949  -1.31172999   0.20604190   1.54973754  -0.23913677  -0.39519581  -0.62958840  -0.63973189  -0.68696959  -1.04972538  -0.09672639   0.07429925  -0.62596265 
 -6.75727218  -4.53236612  -2.25445642   3.63196119   3.43299546  -0.95252256   0.57712084  -0.97071435   0.26471917   1.34881032   0.48608685   2.14845120   0.96049116   0.25578179  -0.21408634  -0.39893727   0.24577791   0.05704540   0.61329177   0.33447581   1.60986002   0.02453442   0.74796239  -0.65901073 
 -3.04563403  -1.32539073   2.26044425   1.06000256   0.94999955   0.12681078  -0.24549972   1.26377161  -1.16052646   0.10178862  -0.29416798   0.16560989   1.51285055  -0.31710677  -1.23630306   0.20164841   0.85943967   0.84346983   0.26458779  -0.12183854  -1.20918984   0.15025608  -1.01470707   0.20968488 
  3.47212624   1.72642807   3.89194826  -1.18865887  -2.48784089  -3.37279250  -1.07296628   0.63258399  -1.67293181  -0.37221485  -0.86090648  -1.88605579  -0.77934312  -0.01727904   0.19505972  -1.07041447   0.62364917   1.19884426   0.36816435   0.58543885   0.82606068   0.64330725  -0.20207367   0.81986717 
 -1.38587883   4.37498245  -4.68875940  -3.47589624  -1.34794026   6.51194163   1.83582765  -3.71806202   2.09111142   0.03718112   0.47864533   1.74573674  -0.03807535  -0.52879068   0.16782848   4.38622585  -1.21126548  -2.91813009  -0.62568882   0.21630494  -2.24547507  -0.73369538   1.73612547  -0.66425396 
  2.87344574   1.05245228   6.40366999  -3.36208981  -1.60698220  -7.15715947   0.12714193  -0.49734799   0.33336535  -1.79351077  -0.83586504  -5.80548572  -0.12825162   0.26457545  -0.16078111  -0.86535242   1.21304725   1.85379858   1.41824146   0.81839831   3.81959045   1.73037573  -0.40827832   0.71300218 
 -5.07248736  -0.31158895   0.25757358   1.22881989   0.15391680  -3.97201859   0.65416781  -1.48815081   0.13942097   0.65633859  -0.05784167   1.20229159   2.03375234  -0.27856940  -1.32717918  -0.94933389   0.67774938   0.49879860   1.16940188   0.71291836   3.54357415   0.27934073   0.59156628  -0.34246111 
  8.41629154  -0.59347583   8.31075143   1.90063647   1.22825913   2.76767218  -0.99942911   1.98904537  -0.99544674  -2.95752569  -2.57988609 -10.39759097  -4.63203976   1.26894337   3.03392758   0.23552824  -0.70099800   0.06102005  -1.24442284  -0.78330903  -3.02438162  -0.71903860   0.17142107   0.24404834 
 -0.47764312  -2.10548821   8.37255695   1.95808887   2.61886954   2.07272217  -1.13621445   0.61619917  -0.44719595  -2.05641037  -1.41288586  -5.48146450   1.53504219  -0.44949631  -1.79662745   0.72411008   0.15455701  -0.26581626  -0.09559717  -1.24855073  -1.07738908  -0.45137604   1.82679539  -1.37678589 
  0.92125651  -2.87882705   2.59437755  -1.47812097   1.75757894  -4.14085905  -1.23281820   1.36986939  -0.59410446  -0.34507463   0.53143274  -0.24384882   0.63625551   0.03085880  -0.96867238   0.54434529  -0.25560155   0.02820466   0.29740884   0.51280644   1.75901336   0.65674791  -1.06811771   1.56588890 
 -0.08342021   1.88379040   0.08465227  -0.47010672  -1.02982948   3.96291614   0.62711527  -0.70764685  -0.11942196  -0.80114086  -0.86132248  -0.04983811   0.06510964   0.15208824  -0.74309093   2.61498693  -1.06520003  -2.04410897  -0.49844199  -0.14944593  -0.00411941  -1.45410206   1.77756612  -1.08698903 
 -0.21361609  -1.97570499  -0.42045682   0.09054214   1.19772198  -3.03685014  -0.86637545   0.56921035  -0.24587896   0.11628163  -0.21637076   0.42456440  -0.24981839  -0.12694910   0.48823500  -0.17247060   0.16947321  -0.13832337   0.84235191   0.67414059   2.94487025   0.45310459  -0.29152155  -0.01616036 
  3.25576089   1.71553794  -2.40779010  -0.36817103  -6.05654029  -5.55625251   0.56326701  -1.24640541   0.09071157  -0.05680680  -0.27550826   1.08862322  -3.46803075   0.75867614   1.78769187  -0.91369646   1.24407085   0.56353414   1.91401054   1.23604004   5.63324472  -0.92633339   2.62412898  -1.19976317 
  7.87664801  -5.99350886  -4.50129855   5.66601795  -3.60011561   3.35221397  -1.63288212   2.75562532  -0.46375792  -0.55663204   0.82965225   0.94683350  -6.53808427   1.41333195   4.13018207  -2.76258116   1.33612300   1.32729874  -0.67377293  -0.54625279  -2.93160314  -1.37871318   3.80514501  -1.85986893 
 -4.12818278  -6.31559713  -1.12303630   4.33213978   3.72980010  -0.25271576  -1.33715966   2.53690689  -0.26683724   0.40735941   1.02643229   1.98232710   1.40292724  -0.75709055  -0.70776358  -1.23574308   1.04564351   1.38627118   0.33945422  -0.28322360  -1.01995184   0.21920487  -0.98287151   0.00170669 
 -0.63693994   3.16084146   1.94985546  -0.49010881  -1.55333321   0.38943322   0.28923250   0.05345435  -0.35332245  -0.42682774  -0.89849100  -1.15607435   0.42982563  -0.68988032  -0.44042652   0.90073968   0.54415966  -0.23251081   0.20916758  -0.25633329   0.13319660  -0.27508865  -0.36041738  -0.29015116 
 -1.57411383  -0.65355229   2.30641491  -1.92433425   0.58556534  -4.97101292  -0.24188425   0.16356818  -0.48677590  -0.25863699  -0.50435217  -0.98936276   0.84678757  -0.35856079  -0.64368212   1.04545454  -0.17250376   0.03295115   1.63086356   1.21896591   3.69714514   0.47586340  -0.27913016   1.05432198 
  0.52205184  -1.08427756  -3.29244810   4.93571359  -3.45733988   0.59880211  -0.14266441   0.41672668   0.34050888   0.29824034  -0.24596920   0.27351206  -2.39415867   0.34811418   2.07716605  -2.04936917   1.10539447   0.84350376   0.23329525   0.48986996   0.63154321  -1.40310902   2.42748109  -1.47258823 
  1.85785859  -3.16801790  -2.70997912  -7.75735074   4.80949314   4.10968633  -0.41455796   0.16589013  -0.54446022   0.80638409   0.60593613   1.91722826  -1.63777312   1.10052559   1.20453410   5.17651823  -1.14840709  -4.00348159   0.25564398  -0.38110184  -0.75151487   1.71327666  -1.98431816   0.77798686 
  0.48595855  -5.86911415  -4.45464783   3.78088416   6.18768027  -1.70050321   0.23666004  -0.46411556   0.98836877   0.51363870   1.20986500   1.09173039  -4.94944812   0.95653347   2.92483859  -0.41529818   0.48041836   1.13249253  -0.77457939  -0.38577481  -1.80613073   1.12218398  -2.11549260   1.82385149 
  3.28741724   1.11309310   5.28795155   5.56182741  -6.91930798   3.56640855  -1.24206514   0.30724508   0.01624624  -1.42545903  -1.43243030  -5.39481885  -0.30423510  -0.33793830   0.30445467  -2.31943879   0.92635704   0.66345770  -1.10889836   0.20579559  -1.47718252  -2.44914796   6.13718551  -2.96651733 
 -5.07155045  -2.33789360   1.74943372   1.65614282   3.21031627   3.03571244   0.33193119   0.45551139  -1.07039159   0.29391138  -0.46656401   0.53906889   1.67299686   0.01917960  -1.51622743   1.31005106   0.17446294  -0.31557826  -0.40242985  -0.11841409  -3.01160559   0.20894672  -0.93659823   0.58958808 
  0.34765910   0.97217061   2.08953842  -1.53433385   0.46925415   4.15905752  -0.08366343   0.37662814   0.30666967  -1.38903973  -0.86365241  -2.69868405  -0.23796410  -0.79438634  -0.03725285   3.76857401  -0.96848546  -2.41160304  -0.22549763  -0.21406911  -0.34974502  -0.64573411   1.02254042  -1.05798065 
 -3.54871351   6.81099752  -1.70634268  -0.49304989   2.65386806   0.76873272   3.53226390  -7.31241529   2.73699362  -0.58804002  -0.77891889  -1.57229633  -0.17301618   0.27236663   0.26871851   1.00502895  -0.33937940  -0.46417212   0.32307326  -0.52226447   0.14045326  -0.05754651  -0.78425442  -0.17208673 
 -3.22818486   2.10547792   3.43840608  -2.87955878  -0.02704123  -5.48662700   0.82587994  -2.18359910   1.03658091  -0.10911959  -0.11363031  -2.35434321   2.18439897  -0.50522120  -0.87508864   1.66819971  -0.26576201  -0.52850066   1.71292520   1.01405247   5.16549235  -0.17454084  -0.02427679  -0.39592009 
  3.31383832  -0.49810261  -6.22740703   1.91036447  -4.96583037   4.45138922  -0.17165684  -0.57723885   0.92117269  -0.01715640   0.13479660   2.00867928  -2.88155806   0.80470748   2.01772517  -0.61286832   0.26506961   0.06567914   0.63170879   0.04870528  -0.82969647  -2.17267221   4.78789285  -2.40754173 
  1.02758928   2.13976090  -1.84299072   1.57244674  -4.77457381   0.53346236   0.29599448  -1.38714458   0.79305400  -0.68410025  -0.17049934   0.86612529  -0.04869037  -0.29729417  -0.23307002  -1.50647475   1.07267755   1.40446219   0.07850530   0.91251864  -0.85887403  -0.73526992   2.50455455  -0.66216906 
  5.99839626   0.33009929  -3.79016093   2.61934108  -3.39458330   4.76831576  -0.50985174   0.27636700  -0.87028506   0.06180115  -0.85787053   0.78276447  -4.87721681   1.40751536   3.15257642  -1.26585934   0.57081446  -0.32041654  -1.47947671   0.10285614  -2.95450260  -0.54713364   1.56480210  -0.76829127 
  6.70541010   0.99555807  -3.88716551   3.31807137  -3.76637598  -1.13217423   0.38565448  -1.04982694   0.12898849  -0.39884523  -0.60575872  -0.36529809  -6.33780960   1.79792302   4.05323948  -2.31930098   0.22996234   0.85021844  -0.20699449   0.47135396   1.10370218  -1.14618592   1.92716400  -0.75151076 
  3.49657453   1.84518052   0.42823156  -9.79922774  -0.36795480   6.74023121   0.47116319  -1.25843325  -0.43496860  -0.13002387  -0.63037902  -0.89042239  -2.51632322   1.16934506   1.24287812   9.08690485  -3.75527811  -5.95522860  -0.13333133   0.48653036   0.17373403  -0.47573665   2.51098923  -1.30445533 
 -1.58351478  -0.02555077  -1.84815554  -0.15248779  -4.98454125   4.01558759   0.89545917  -1.10850061   0.68165719   0.51193535   0.51117894   0.91142927  -0.71349866   0.25436151   0.43498814   3.34766056  -0.44172543  -1.40626247   0.51669136   0.44009587   0.13668969  -2.82224522   5.35468175  -2.92593388 
  5.45098314   3.23733513  10.12280133   1.95740522  -6.57681319  -2.13995656  -0.82018548   0.95961801  -0.36072849  -2.99122401  -1.45765994  -8.46579566  -0.58542702  -0.77426109  -0.17410401  -1.50464233   0.83771777   1.13507391  -0.13443382   0.54457592   1.13420796  -1.37247545   3.22948738  -1.25149875 
 -0.74253558  -4.55844345   0.80137843  -5.07236600   3.98846640   6.51550774  -0.66980187   1.62624844  -0.80177464   0.00514836  -0.23848629  -1.00556477  -0.86164515   0.23190377   0.85298956   7.67756221  -1.45664513  -4.22664775  -0.30497609   0.08872103  -2.50312733  -0.03138536   0.31823523   0.36723824 
 -2.37534314   7.19753877  -2.25090240   1.59027471  -5.76803617  -2.26551522   2.05245449  -4.25944618   2.22328935  -0.10363750  -1.11092850  -0.75516351   0.54773477  -0.91772331   0.23345697  -1.01830197   0.09710023   0.30569625   1.42493942   0.96383204   4.33548683  -2.11812077   3.79766287  -1.82634854 
 -2.27276339  -2.80137461  -0.70992150   4.63721769   7.18576084   1.04240342  -0.70857681   0.22939387   0.31876179  -0.79963446  -0.00915156   1.13655100   1.49665368  -0.74676349  -1.24388188  -1.06753947  -0.97929332  -0.36903029  -1.29374724  -0.82672660  -0.74457780   0.00838974  -2.05184514   0.56969500 
 -6.45255062   1.46859944  -1.46634150   4.35611524   2.67993999  -0.16541217   1.72003942  -3.00241033   1.77815156   0.17797017  -0.20961829  -0.52314327   2.12599912  -0.41197555  -0.32150180  -1.68212939   0.20692121   0.04755754  -0.65307407   0.36266632   0.15693964   0.40762989  -1.09412305   0.49375000 
 -4.34778747   3.30073885  -1.16010018   0.89785594  -3.18229699  -1.88156280   0.84044776  -1.63253245   0.69411337   1.31079462   0.12237538   1.94498580   1.10001394  -1.40060760  -0.72177476   0.90964904   0.25220565  -0.10012152   0.63837024   0.42302252   2.09027452  -1.34934408   2.11709439  -0.86581444 
  1.50527225  -1.50225558  -5.90702803   2.43732093   2.80190194  -2.37551746   0.75270169  -2.15968278   0.72326496   0.28930861   0.49242846   2.57038666  -3.50445494   1.03069465   2.23581598  -1.66181028  -0.54825156   1.27835306   0.11207506   0.43230006   0.35735984   0.06958669  -0.54713493   1.11736498 
  3.40617200  -4.34705702  -2.66742956  -3.49460918  -0.53195878  -3.37547853  -1.59462140   2.02818052  -0.21818415   0.14780865   1.32125667   2.41297909  -0.53503587   0.46497225   0.56705526   0.29049285  -0.28165446   0.67233414   0.66781956   0.93067725   1.18557176   1.11197339   0.41558357   1.42315173 
 -0.84980269  -0.82591465  -5.08907889  -0.80146790  -1.56327718  -3.56788796   0.63220141  -1.16306979   0.77124957   1.15458723   0.50702508   2.48983246  -2.48704102   0.35469850   1.82746182   1.93972123  -0.82255397  -1.15711231   2.07399821   1.32279290   5.64330233  -1.66219672   2.19029912  -0.91776702 
  1.58826874  -4.87499872  -1.70895594   1.51646320  -2.17217033  -4.16532997  -1.45453940   2.43655808   0.18689547  -0.11406457   0.91012983   0.99409126  -0.73191593   0.04056185   0.68522536  -1.80764459   1.14952346   2.04042793   0.92749630   0.97244058   1.91387170   0.07593652   1.53795550   0.05377445 
  0.76599348  -1.73583468  -1.92747536  -3.09685436   3.56941982  -0.60781560   0.78060501  -1.52097547   1.19292252  -0.00532345   0.66455401  -0.23482376  -2.60978947   0.81651318   1.54765675   2.00822343  -0.11303331  -1.11865670   0.05016335  -0.01459431  -0.24100673   2.10698176  -1.66604925   1.38919862 
  1.52938964  -1.52896309  -7.28522751   1.88246011   3.78909881   0.76108243   1.45442885  -3.63060057   1.70515226   0.26601654   0.99423755   2.35406373  -4.51342897   1.32184493   2.92309899  -1.06498252  -0.15678177   1.29097328   0.57294512  -0.86649115  -1.44059096  -0.12682903   0.07765530  -0.30855248 
  5.39045776  -0.42100652  -1.30959315  -2.17178826  -4.48130211   5.49553147  -1.36858230   1.62446590  -0.39948928  -0.61120559  -0.44244046  -0.77417059  -1.70603260   0.56246354   1.49628679   2.10766027  -0.77678205  -1.40898551   0.30519335   0.20834740  -1.62064320  -1.94570262   3.72625430  -1.47893627 
 -5.26185596   1.16471169  -3.98547519  -0.16821929   3.42136794  -3.27800857   1.46063804  -3.53404413   1.54444211   1.18801455   0.56724141   3.02258160   0.98439514  -0.15148737  -0.45661927   0.67797718  -0.38487081  -0.14822748   0.82801909   0.53192305   2.56688200   0.29103124  -1.61484178   0.73442455 
 -0.41519328  -1.43625506   3.52631773  -0.73511720  -1.32220669  -3.54198418  -0.16595647   0.42488656  -1.20820613  -0.30688590  -0.49794423  -0.90193164   0.62892892   0.46894973  -1.08903357   0.12921192   0.12233810   0.57008761   1.17844134   0.86871541   2.98185725  -0.31342908   1.37151618  -0.33710706 
 -1.26649903  -3.26661065  -2.35692690   4.11385382   3.94581733  -1.72153271  -0.00024862   0.61703220  -0.48816224   0.32975425  -0.13956161   2.01255521  -1.56828542   0.20623139   0.65137869  -1.23729139  -0.42428493   0.43631354  -0.89209335   0.38964328  -0.22756633   0.52080974  -1.32826753   1.69394100 
 -3.55949128   2.71840203   0.60190080  -2.58552476   0.19507309  -3.48207741   0.77770199  -0.87809193   0.33949664  -0.06545365  -0.63988178  -0.28568645   1.49137651  -1.09595007  -0.92393662   1.33057663   0.19388165  -0.68404780   1.66487143   1.12777560   3.67561839   0.94594313  -1.62120884   0.75873245 
 -3.71563079   2.71122945   1.47113839   2.29942230  -2.61244181   0.09871051   1.36114695  -2.94208344   1.78971532  -0.02843271   0.47429041  -1.36740062   1.21347611  -0.86197117  -0.84849040   0.45663676   0.20297869  -0.11733706  -0.41984464   0.09240670   0.03926448  -1.16677422   2.93559142  -1.06560035 
 -7.20431386   0.17018129  -4.30312960   5.29102555   3.24419070   1.50310250   2.34721562  -4.85854629   1.99600584  -0.02508566  -0.23799649   2.02951081   0.45170668  -0.25630912  -0.23422727   0.02042504   0.06670835  -0.02746032   0.68019835  -0.29807887   0.88903194  -1.56117146   2.16985017  -1.85283390 
  1.09362297  -0.35531299   3.52645220  -2.81355389  -2.27494676   3.41792165  -0.51511040   0.84418948  -0.58928418  -0.81819596  -0.54716964  -2.24491689   0.81439408   0.22492376  -0.82627948   2.49757274  -0.34200526  -2.03043023   0.14521030   0.25071236   0.12475776  -0.40393959   2.19960905  -1.37822056 
 -0.05976253  -1.94938649   2.63274317   1.34941607   0.59368743   2.30845148  -1.27372381   1.86438557  -1.78393858  -0.47879471  -0.83089871  -0.18009184   0.95758968  -0.20564878  -1.13946688   0.56159811  -0.40619213  -0.30630149  -0.19406111  -0.26179532  -0.88136905  -0.86226196   1.19584868  -0.65002655 
  5.53125864  -2.61122851  -0.86960604  -6.83700852  -1.82321463  -8.19837786  -0.90157092   0.92902738   0.44457498  -0.48678979   0.84263473  -0.41978268  -2.36651220   0.70972686   1.35976447   2.58813956  -1.03506423  -1.14242133   1.75178730   2.50296124   8.00777951   0.72069593   0.48515688   0.81806895 
 -2.73465187  -1.94273095   3.33113279  -1.57503043   4.59729089   4.69416590  -0.17434492   0.48222224   0.04580611  -0.89748159  -0.40582061  -1.85697182   2.17556957  -0.44584201  -1.45497700   2.42703372  -0.21330704  -1.58029166  -0.50315738  -1.04549696  -3.10259279   1.28206264  -1.02631556  -0.07627153 
  1.52381576  -2.36171042  -0.84715780   0.65130799   0.40716452  -4.92780619  -1.71667128   1.70131259  -0.39481683   0.36198755   0.42713961   1.43022687  -0.61785933  -0.53260901   0.43902476  -0.86271242   0.11131350   2.00857644   0.64055541   0.39267717   1.08685636   0.01957632  -0.14528769   1.20509639 
  1.69003217   0.40638830   2.58722142   3.21004425   3.65543632  -0.98578148   0.13762943  -1.64381828   0.20766734  -0.83856983  -0.54658086  -2.28203862  -1.30240488   0.34029342   0.18322857  -1.76843796  -0.15028179   0.53659678  -1.33174596  -0.87576201  -0.88728360   0.20345280  -1.18567537   0.64038932 
  4.66395296  -0.15143544   3.11356673  -9.17993786   2.83197013   6.75273702  -1.47866553   1.58620904  -0.78688362  -0.92524093  -0.97722359  -3.38323783  -0.60369671   0.25827112   0.79183015   7.71553059  -2.20027908  -5.08691891  -0.52985974  -0.75066358  -1.29671042   0.33791722  -0.59684808  -0.10438363 
 -8.18643024  -7.72613019  -1.26560480   8.08585363   7.28869360   1.17473691  -0.51262235   0.86193929   0.14719493   0.95837000   0.66565958   1.22065538   1.56242306  -0.56693313   0.11681667  -0.10459086  -0.22871124   0.31574718  -1.01663359  -0.09720282  -2.12924975  -0.78636992  -0.19731560   0.41970349 
  1.45326928   0.45727105  -4.08889465  -2.90302259  -2.18925525  -6.44294193   0.38976592  -1.89203461   1.08361833   0.75105979   0.91637374   2.37852050  -1.73994303   0.55426278   1.24762822  -0.17499104   0.15627990   0.09382183   2.23436203   1.57119076   6.30011143  -0.01050035   0.42591114  -0.57186346 
 -3.12592033  -3.23163090   5.43431704   8.19690694  -3.98545950   2.45131308  -0.78164708   2.35229867  -1.12555829  -1.10168695  -0.78271125  -3.03799531   1.00877812  -0.93072559  -1.01565066  -1.89625970   1.93969629   1.14256865  -0.61334371   0.30397773  -1.92385192  -1.68682704   4.33455481  -1.92514261 
  0.71519070  -2.04905344   0.09853233   2.03899609  -0.97852199  -0.96410303   0.11187606   0.59142487  -0.29734585   0.00411015   0.52593368   0.01486273  -1.38022267   0.53480499   0.56779162  -1.20935207   0.76566129   0.30995244   0.00001928  -0.01621255   0.94791336  -0.28061728   0.62596290  -0.67760360 
 -0.45280685   1.47170763  -2.77657408   5.56683154 -10.57658906   7.45127268  -0.13549748   0.81454141  -0.03556287  -0.16256005  -0.53946587   1.79850692  -0.01623672  -0.64171600   0.09244244  -0.13971099   0.70483201   0.10855857  -0.58707072   0.37130494  -1.83231348  -4.07294898   8.39538468  -4.80633043 
  5.05123469  -2.81578971  -4.32182892  -0.24744141  -1.97591942   5.98764137  -0.49334685   0.45411091  -0.05425010  -0.18750430   0.18997975   1.12255345  -3.75404167   1.37037795   2.21960857   0.25172203   0.20835691  -0.73574686  -0.14555714  -0.07024849  -2.67726554  -0.47506482   2.63913209  -1.54071197 
 -6.32239794  -8.36305573   1.61859198   0.87186526   5.39148954  -0.64662551  -1.03822127   1.60174745  -1.63868637   1.24795063   0.41296928   1.40921023   2.09550850   0.24000092  -1.09740942   1.84662188  -0.16665272  -1.01453866   0.33158949   0.31976657   0.96665279   0.96708345   0.56373469   0.40280471 
 -2.69781990   1.00599337  -2.28188049   4.31294810  -3.06640103   1.20808812   0.49204665  -0.11430240   0.31383917   0.03251715  -0.09712851   1.86822448   0.54976465  -0.76481232  -0.59077541  -2.14809639   1.61742701  -0.10356345  -0.32837974   0.77756109   0.33155221  -0.21298051   0.64166278  -0.74548488 
  0.29493545  -3.72121136  -4.38388641   7.43956803  -4.02842636   3.12824974  -0.43215350   0.55093681  -0.03151931   0.65061199   0.35998287   2.28817273  -2.28104077   0.60523268   1.67783489  -2.50371766   0.53531972   0.74041905  -0.74254252  -0.24742110  -0.60550419  -2.42566101   5.94558674  -2.81376677 
 -0.41124022   0.56194778  -5.28941373  -5.38671965   4.82055810   6.74903670   1.19663569  -3.14310810   1.15887736   0.17518233  -0.57108468   1.70006304  -2.61729372   1.03604793   1.49007194   7.04925446  -1.78734143  -4.10555046  -0.37600259   0.11490224  -2.46010546   0.37018343  -1.03192183   0.75702061 
  0.21933369   2.60820361   0.57712984  -4.92763212   1.85642084  -0.78570066   0.28416796  -1.47544189   0.46025660  -0.08657777   0.22530197   0.99552207   0.21873925  -0.81242025  -1.11840756   2.37852281  -0.32055924  -1.69205896  -0.14534863  -0.03706928   0.39615380   2.05879507  -2.04443576   1.16710487 
  3.20593487   2.29476605   5.74845240   1.42861222  -1.81462846   1.77215243  -0.40375859   0.36269872  -0.55654797  -1.89326668  -1.32300321  -5.10552516  -1.41229683  -0.30740012   0.47694249   0.46441689   0.45071398  -0.32622490  -1.02750726  -0.01832214  -2.03263212  -0.36213436   0.35517543   0.02338257 
 -2.53045730   4.27629817  -4.63185053  -6.38574021  -1.49060107  -4.85119887   1.81796060  -3.56029938   1.48689638   1.20228079   0.60402503   3.02801920   0.29332620  -0.20412052  -0.00987660   3.52743307  -1.00169681  -1.80261347   1.97575153   1.56148153   6.04853827   0.09944558  -0.18508670   0.73208562 
  2.29294494  -2.13493290   7.56043726   0.12505935   2.60254695  -1.05370672  -1.21514038   2.48629823  -1.38803006  -1.75355030  -1.46327804  -5.57052594  -0.77254360   0.02420172   0.24897893   0.37751002   0.71651944   0.71595971   0.44269037  -0.86826418  -0.57543883   0.50302934  -1.36309147   0.06232591 
  2.73459145  -2.02322345   3.01101604   1.49442120   3.38450770  -1.63915431  -2.02777892   1.51742222  -0.65416627  -0.98880663  -0.67474146  -2.37845828  -0.19724258  -0.38287281   0.09539739  -2.33725108   0.63465835   2.08411444   0.27717690  -0.55335287  -0.95843094   1.04488967  -1.90239767   0.43968193 
  4.97901031  -2.84263297   1.93317008  -8.92013900   4.35065732   6.65877327  -1.56179057   1.99037823  -0.85504875  -0.90345656  -0.37447664  -2.00163088  -1.14610956   0.50289718   0.84578278   6.65022155  -1.33556970  -4.09928342  -0.61372732  -1.10676384  -2.33659648   1.51599089  -1.18448933  -0.14516634 
  3.56485561   1.94774047  10.01168761  -0.38693514  -0.13011746   0.29283229  -1.24799460   1.70088990  -1.31932552  -2.12170590  -2.30828667  -8.24656378   0.19299359  -0.64184224  -0.61693913  -0.85049431   0.67132962  -0.38634559  -0.32806812   0.14951303   0.15966063   1.17734862  -1.38922691   0.10499375 
 -4.12527745  -2.66528475   1.13013432   1.51569418   2.45238163   1.54380525  -0.17548212  -0.29847559   0.18868829   0.24879921   0.28269524   0.20852789   1.46386708  -0.80059039  -0.73359665   2.03916578  -0.30183498  -1.39811364  -0.54451935  -0.32048442  -0.26183980  -0.42224708   1.65159352  -0.67760566 
 -1.44750257  -0.58456956   7.82307256   2.15929480   2.34529064  -3.24734544  -0.37507520   1.12194333  -0.84677317  -1.50424073  -0.85727918  -4.72421686   1.22619737  -0.78775394  -1.35152900  -0.44096028   0.91871292   0.52492967  -0.37583624  -0.22920232   0.59931864   0.75812258  -1.92714189   1.22254333 
  6.02127206  -2.60126294  -3.04318764  -4.38382008   1.91077507   0.78598786  -1.31362874   1.79805646  -0.29412350  -0.19094854  -0.27387253  -0.18403152  -3.12265041   1.21994987   2.45566055   0.83727400  -0.41874113  -0.58527815   0.89398619   0.21997723   0.45518255   1.25851526  -1.85488204   0.40978986 
 -2.58335090  -2.33149131   4.47429100  -2.29655836   4.90817459   3.24041788  -0.49880991   1.96612432  -1.32152612  -0.34692916  -0.48881401  -1.66969172   1.98610815  -0.24547838  -1.22439118   3.70504560  -0.81161859  -2.62483551  -0.58690103  -0.91723377  -0.80696259   0.62139587  -2.07966259  -0.06730201 
 -3.72655975   2.48417990  -1.26861015   0.75095232   3.53126966  -0.76245514   1.93694573  -3.67806298   1.91971631  -0.24427537   0.28284796   0.04527313   0.58126982  -0.23545188  -0.74954284   0.22342738  -0.02702658  -0.09412110   0.21150547  -0.26812021   0.48281950   0.26673439  -2.08963612   0.42692030 
 -4.65457155   0.37165230  -3.67769634  -1.90495180   5.14531259   0.71214601   1.24444726  -3.23877469   1.31151222   0.97896628   0.13893966   1.65254971   0.11316263   0.07664897   0.39132889   2.69304204  -0.73936233  -1.16923502   0.91554867   0.03065285  -0.13256309   0.61435647  -1.78506961   0.91195737 
 -3.70015743  -4.60644811  -0.99781703   1.82609348   4.86363860  -1.58869451  -1.11410843   1.31209097   0.14683446   0.91018691   0.40337318   0.51100899   1.12754548  -0.53841815   0.57223627  -0.37661374   0.22444502   0.42437748   0.71322998  -0.23710741   1.02044087   0.61382373  -1.42157437  -0.08838653 