
     Program PWSCF v.5.1.1 starts on  4Jul2020 at 16:12:16 

     This program is part of the open-source Quantum ESPRESSO suite
     for quantum simulation of materials; please cite
         "P. Giannozzi et al., J. Phys.:Condens. Matter 21 395502 (2009);
          URL http://www.quantum-espresso.org", 
     in publications or presentations arising from this work. More details at
     http://www.quantum-espresso.org/quote

     Parallel version (MPI), running on     1 processors
     Waiting for input...
     Reading input from standard input
Warning: card &IONS ignored
Warning: card / ignored
Warning: card &CELL ignored
Warning: card / ignored

     Current dimensions of program PWSCF are:
     Max number of different atomic species (ntypx) = 10
     Max number of k-points (npk) =  40000
     Max angular momentum in pseudopotentials (lmaxx) =  3

     gamma-point specific algorithms are used

     Subspace diagonalization in iterative solution of the eigenvalue problem:
     a serial algorithm will be used


     G-vector sticks info
     --------------------
     sticks:   dense  smooth     PW     G-vecs:    dense   smooth      PW
     Sum        5689    5689   1433               322453   322453   40339
     Tot        2845    2845    717



     bravais-lattice index     =            1
     lattice parameter (alat)  =      18.8973  a.u.
     unit-cell volume          =    6748.3346 (a.u.)^3
     number of atoms/cell      =            8
     number of atomic types    =            2
     number of electrons       =        14.00
     number of Kohn-Sham states=            7
     kinetic-energy cutoff     =      50.0000  Ry
     charge density cutoff     =     200.0000  Ry
     convergence threshold     =      1.0E-06
     mixing beta               =       0.2000
     number of iterations used =            8  plain     mixing
     Exchange-correlation      = PBE ( 1  4  3  4 0 0)

     celldm(1)=  18.897261  celldm(2)=   0.000000  celldm(3)=   0.000000
     celldm(4)=   0.000000  celldm(5)=   0.000000  celldm(6)=   0.000000

     crystal axes: (cart. coord. in units of alat)
               a(1) = (   1.000000   0.000000   0.000000 )  
               a(2) = (   0.000000   1.000000   0.000000 )  
               a(3) = (   0.000000   0.000000   1.000000 )  

     reciprocal axes: (cart. coord. in units 2 pi/alat)
               b(1) = (  1.000000  0.000000  0.000000 )  
               b(2) = (  0.000000  1.000000  0.000000 )  
               b(3) = (  0.000000  0.000000  1.000000 )  


     PseudoPot. # 1 for C  read from file:
     ../../pseudo-potentials/C_ONCV_PBE-1.0.upf
     MD5 check sum: 40f8c33130f0afa4272e9dcc1c4fb0df
     Pseudo is Norm-conserving, Zval =  4.0
     Generated using ONCVPSP code by D. R. Hamann
     Using radial grid of  602 points,  4 beta functions with: 
                l(1) =   0
                l(2) =   0
                l(3) =   1
                l(4) =   1

     PseudoPot. # 2 for H  read from file:
     ../../pseudo-potentials/H_ONCV_PBE-1.0.upf
     MD5 check sum: 10f92816c437af099bca1a183851adc8
     Pseudo is Norm-conserving, Zval =  1.0
     Generated using ONCVPSP code by D. R. Hamann
     Using radial grid of  602 points,  2 beta functions with: 
                l(1) =   0
                l(2) =   0

     atomic species   valence    mass     pseudopotential
        C              4.00     1.00000     C ( 1.00)
        H              1.00     1.00000     H ( 1.00)

     No symmetry found



   Cartesian axes

     site n.     atom                  positions (alat units)
         1           C   tau(   1) = (   1.7450760   2.1850840   2.0038800  )
         2           C   tau(   2) = (   1.8472240   2.2990560   1.9977360  )
         3           H   tau(   3) = (   1.7438720   2.1313400   1.9068400  )
         4           H   tau(   4) = (   1.6432280   2.2046480   2.0293080  )
         5           H   tau(   5) = (   1.7908520   2.1005920   2.0639200  )
         6           H   tau(   6) = (   1.9473120   2.2653840   2.0314240  )
         7           H   tau(   7) = (   1.8234600   2.3886680   2.0602960  )
         8           H   tau(   8) = (   1.8562080   2.3186720   1.8889800  )

     number of k points=     1
                       cart. coord. in units 2pi/alat
        k(    1) = (   0.0000000   0.0000000   0.0000000), wk =   2.0000000

     Dense  grid:   161227 G-vectors     FFT dimensions: (  90,  90,  90)

     Largest allocated arrays     est. size (Mb)     dimensions
        Kohn-Sham Wavefunctions         2.15 Mb     (   20170,    7)
        NL pseudopotentials             8.62 Mb     (   20170,   28)
        Each V/rho on FFT grid         11.12 Mb     (  729000)
        Each G-vector array             1.23 Mb     (  161227)
        G-vector shells                 0.01 Mb     (    1510)
     Largest temporary arrays     est. size (Mb)     dimensions
        Auxiliary wavefunctions         4.31 Mb     (   20170,   28)
        Each subspace H/S matrix        0.01 Mb     (      28,   28)
        Each <psi_i|beta_j> matrix      0.00 Mb     (      28,    7)
        Arrays for rho mixing          88.99 Mb     (  729000,    8)

     Initial potential from superposition of free atoms
     Check: negative starting charge=   -0.000642

     starting charge   13.97327, renormalised to   14.00000

     negative rho (up, down):  6.428E-04 0.000E+00
     Starting wfc are random

     total cpu time spent up to now is        2.1 secs

     per-process dynamical memory:   141.6 Mb

     Self-consistent Calculation

     iteration #  1     ecut=    50.00 Ry     beta=0.20
     Davidson diagonalization with overlap
     ethr =  1.00E-02,  avg # of iterations =  9.0

     negative rho (up, down):  3.866E-04 0.000E+00

     total cpu time spent up to now is        5.3 secs

     total energy              =     -29.99642864 Ry
     Harris-Foulkes estimate   =     -30.22425979 Ry
     estimated scf accuracy    <       0.89157295 Ry

     iteration #  2     ecut=    50.00 Ry     beta=0.20
     Davidson diagonalization with overlap
     ethr =  6.37E-03,  avg # of iterations =  1.0

     negative rho (up, down):  9.604E-05 0.000E+00

     total cpu time spent up to now is        7.2 secs

     total energy              =     -29.78111060 Ry
     Harris-Foulkes estimate   =     -30.02130062 Ry
     estimated scf accuracy    <       0.40807642 Ry

     iteration #  3     ecut=    50.00 Ry     beta=0.20
     Davidson diagonalization with overlap
     ethr =  2.91E-03,  avg # of iterations =  2.0

     negative rho (up, down):  1.144E-04 0.000E+00

     total cpu time spent up to now is        9.2 secs

     total energy              =     -29.96309759 Ry
     Harris-Foulkes estimate   =     -29.91355410 Ry
     estimated scf accuracy    <       0.09795548 Ry

     iteration #  4     ecut=    50.00 Ry     beta=0.20
     Davidson diagonalization with overlap
     ethr =  7.00E-04,  avg # of iterations =  2.0

     negative rho (up, down):  1.983E-05 0.000E+00

     total cpu time spent up to now is       11.2 secs

     total energy              =     -29.83821825 Ry
     Harris-Foulkes estimate   =     -29.97751871 Ry
     estimated scf accuracy    <       0.30927599 Ry

     iteration #  5     ecut=    50.00 Ry     beta=0.20
     Davidson diagonalization with overlap
     ethr =  7.00E-04,  avg # of iterations =  2.0

     negative rho (up, down):  5.240E-06 0.000E+00

     total cpu time spent up to now is       13.2 secs

     total energy              =     -29.88224631 Ry
     Harris-Foulkes estimate   =     -29.88301059 Ry
     estimated scf accuracy    <       0.00604464 Ry

     iteration #  6     ecut=    50.00 Ry     beta=0.20
     Davidson diagonalization with overlap
     ethr =  4.32E-05,  avg # of iterations =  2.0

     negative rho (up, down):  1.506E-06 0.000E+00

     total cpu time spent up to now is       15.1 secs

     total energy              =     -29.88086211 Ry
     Harris-Foulkes estimate   =     -29.88275586 Ry
     estimated scf accuracy    <       0.00399337 Ry

     iteration #  7     ecut=    50.00 Ry     beta=0.20
     Davidson diagonalization with overlap
     ethr =  2.85E-05,  avg # of iterations =  2.0

     negative rho (up, down):  6.540E-08 0.000E+00

     total cpu time spent up to now is       17.2 secs

     total energy              =     -29.88174772 Ry
     Harris-Foulkes estimate   =     -29.88179440 Ry
     estimated scf accuracy    <       0.00013917 Ry

     iteration #  8     ecut=    50.00 Ry     beta=0.20
     Davidson diagonalization with overlap
     ethr =  9.94E-07,  avg # of iterations =  2.0

     total cpu time spent up to now is       19.4 secs

     total energy              =     -29.88177142 Ry
     Harris-Foulkes estimate   =     -29.88177097 Ry
     estimated scf accuracy    <       0.00000893 Ry

     iteration #  9     ecut=    50.00 Ry     beta=0.20
     Davidson diagonalization with overlap
     ethr =  6.38E-08,  avg # of iterations =  2.0

     total cpu time spent up to now is       21.7 secs

     total energy              =     -29.88177246 Ry
     Harris-Foulkes estimate   =     -29.88177307 Ry
     estimated scf accuracy    <       0.00000405 Ry

     iteration # 10     ecut=    50.00 Ry     beta=0.20
     Davidson diagonalization with overlap
     ethr =  2.90E-08,  avg # of iterations =  2.0

     total cpu time spent up to now is       23.7 secs

     total energy              =     -29.88177200 Ry
     Harris-Foulkes estimate   =     -29.88177287 Ry
     estimated scf accuracy    <       0.00000195 Ry

     iteration # 11     ecut=    50.00 Ry     beta=0.20
     Davidson diagonalization with overlap
     ethr =  1.39E-08,  avg # of iterations =  2.0

     total cpu time spent up to now is       25.5 secs

     End of self-consistent calculation

          k = 0.0000 0.0000 0.0000 ( 20170 PWs)   bands (ev):

   -18.2463 -14.6944 -10.3947 -10.1059  -8.7023  -7.9993  -7.2461

     highest occupied level (ev):    -7.2461

!    total energy              =     -29.88177230 Ry
     Harris-Foulkes estimate   =     -29.88177233 Ry
     estimated scf accuracy    <       0.00000006 Ry

     The total energy is the sum of the following terms:

     one-electron contribution =     -88.22067884 Ry
     hartree contribution      =      45.71728876 Ry
     xc contribution           =     -11.26125611 Ry
     ewald contribution        =      23.88287389 Ry

     convergence has been achieved in  11 iterations

     Forces acting on atoms (Ry/au):

     atom    1 type  1   force =     0.07712827   -0.08357548   -0.00603884
     atom    2 type  1   force =     0.00077970    0.00339737   -0.01104610
     atom    3 type  2   force =    -0.00914962    0.01821834   -0.00253279
     atom    4 type  2   force =    -0.02595800    0.01478039    0.01965064
     atom    5 type  2   force =    -0.03575918    0.03014115    0.00923908
     atom    6 type  2   force =    -0.01242391    0.00016917   -0.00407336
     atom    7 type  2   force =    -0.00232268   -0.01660964   -0.02597740
     atom    8 type  2   force =     0.00770542    0.03347870    0.02077876

     Total force =     0.140770     Total SCF correction =     0.000261


     entering subroutine stress ...

          total   stress  (Ry/bohr**3)                   (kbar)     P=   -3.09
  -0.00001794   0.00000866  -0.00000936         -2.64      1.27     -1.38
   0.00000866  -0.00002072  -0.00001240          1.27     -3.05     -1.82
  -0.00000936  -0.00001240  -0.00002441         -1.38     -1.82     -3.59


     init_run     :      2.01s CPU      2.10s WALL (       1 calls)
     electrons    :     22.99s CPU     23.33s WALL (       1 calls)
     forces       :      0.97s CPU      0.98s WALL (       1 calls)
     stress       :      1.19s CPU      1.24s WALL (       1 calls)

     Called by init_run:
     wfcinit      :      0.23s CPU      0.25s WALL (       1 calls)
     potinit      :      1.41s CPU      1.46s WALL (       1 calls)

     Called by electrons:
     c_bands      :      7.48s CPU      7.52s WALL (      11 calls)
     sum_band     :      2.04s CPU      2.04s WALL (      11 calls)
     v_of_rho     :     13.44s CPU     13.69s WALL (      12 calls)
     mix_rho      :      1.10s CPU      1.17s WALL (      11 calls)

     Called by c_bands:
     init_us_2    :      0.30s CPU      0.31s WALL (      23 calls)
     regterg      :      6.91s CPU      6.94s WALL (      11 calls)

     Called by *egterg:
     h_psi        :      6.71s CPU      6.74s WALL (      40 calls)
     g_psi        :      0.08s CPU      0.08s WALL (      28 calls)
     rdiaghg      :      0.01s CPU      0.01s WALL (      39 calls)

     Called by h_psi:
     add_vuspsi   :      0.10s CPU      0.10s WALL (      40 calls)

     General routines
     calbec       :      0.12s CPU      0.12s WALL (      45 calls)
     fft          :      3.54s CPU      3.65s WALL (     139 calls)
     fftw         :      6.02s CPU      6.04s WALL (     332 calls)

     Parallel routines
     fft_scatter  :      2.30s CPU      2.36s WALL (     471 calls)

     PWSCF        :    27.20s CPU        27.70s WALL


   This run was terminated on:  16:12:44   4Jul2020            

=------------------------------------------------------------------------------=
   JOB DONE.
=------------------------------------------------------------------------------=
