
     Program PWSCF v.5.1.1 starts on  4Jul2020 at 17:33: 8 

     This program is part of the open-source Quantum ESPRESSO suite
     for quantum simulation of materials; please cite
         "P. Giannozzi et al., J. Phys.:Condens. Matter 21 395502 (2009);
          URL http://www.quantum-espresso.org", 
     in publications or presentations arising from this work. More details at
     http://www.quantum-espresso.org/quote

     Parallel version (MPI), running on     1 processors
     Waiting for input...
     Reading input from standard input
Warning: card &IONS ignored
Warning: card / ignored
Warning: card &CELL ignored
Warning: card / ignored

     Current dimensions of program PWSCF are:
     Max number of different atomic species (ntypx) = 10
     Max number of k-points (npk) =  40000
     Max angular momentum in pseudopotentials (lmaxx) =  3

     gamma-point specific algorithms are used

     Subspace diagonalization in iterative solution of the eigenvalue problem:
     a serial algorithm will be used


     G-vector sticks info
     --------------------
     sticks:   dense  smooth     PW     G-vecs:    dense   smooth      PW
     Sum        5689    5689   1433               322453   322453   40339
     Tot        2845    2845    717



     bravais-lattice index     =            1
     lattice parameter (alat)  =      18.8973  a.u.
     unit-cell volume          =    6748.3346 (a.u.)^3
     number of atoms/cell      =            8
     number of atomic types    =            2
     number of electrons       =        14.00
     number of Kohn-Sham states=            7
     kinetic-energy cutoff     =      50.0000  Ry
     charge density cutoff     =     200.0000  Ry
     convergence threshold     =      1.0E-06
     mixing beta               =       0.2000
     number of iterations used =            8  plain     mixing
     Exchange-correlation      = PBE ( 1  4  3  4 0 0)

     celldm(1)=  18.897261  celldm(2)=   0.000000  celldm(3)=   0.000000
     celldm(4)=   0.000000  celldm(5)=   0.000000  celldm(6)=   0.000000

     crystal axes: (cart. coord. in units of alat)
               a(1) = (   1.000000   0.000000   0.000000 )  
               a(2) = (   0.000000   1.000000   0.000000 )  
               a(3) = (   0.000000   0.000000   1.000000 )  

     reciprocal axes: (cart. coord. in units 2 pi/alat)
               b(1) = (  1.000000  0.000000  0.000000 )  
               b(2) = (  0.000000  1.000000  0.000000 )  
               b(3) = (  0.000000  0.000000  1.000000 )  


     PseudoPot. # 1 for C  read from file:
     ../../pseudo-potentials/C_ONCV_PBE-1.0.upf
     MD5 check sum: 40f8c33130f0afa4272e9dcc1c4fb0df
     Pseudo is Norm-conserving, Zval =  4.0
     Generated using ONCVPSP code by D. R. Hamann
     Using radial grid of  602 points,  4 beta functions with: 
                l(1) =   0
                l(2) =   0
                l(3) =   1
                l(4) =   1

     PseudoPot. # 2 for H  read from file:
     ../../pseudo-potentials/H_ONCV_PBE-1.0.upf
     MD5 check sum: 10f92816c437af099bca1a183851adc8
     Pseudo is Norm-conserving, Zval =  1.0
     Generated using ONCVPSP code by D. R. Hamann
     Using radial grid of  602 points,  2 beta functions with: 
                l(1) =   0
                l(2) =   0

     atomic species   valence    mass     pseudopotential
        C              4.00     1.00000     C ( 1.00)
        H              1.00     1.00000     H ( 1.00)

     No symmetry found



   Cartesian axes

     site n.     atom                  positions (alat units)
         1           C   tau(   1) = (   1.7414040   2.1849240   1.9868360  )
         2           C   tau(   2) = (   1.8536400   2.2963880   2.0151280  )
         3           H   tau(   3) = (   1.6608240   2.1735720   2.0653400  )
         4           H   tau(   4) = (   1.7727440   2.0809400   1.9719280  )
         5           H   tau(   5) = (   1.7019480   2.2125960   1.8908080  )
         6           H   tau(   6) = (   1.8533440   2.3776200   1.9373040  )
         7           H   tau(   7) = (   1.9555880   2.2536320   2.0074280  )
         8           H   tau(   8) = (   1.8277760   2.3446560   2.1038000  )

     number of k points=     1
                       cart. coord. in units 2pi/alat
        k(    1) = (   0.0000000   0.0000000   0.0000000), wk =   2.0000000

     Dense  grid:   161227 G-vectors     FFT dimensions: (  90,  90,  90)

     Largest allocated arrays     est. size (Mb)     dimensions
        Kohn-Sham Wavefunctions         2.15 Mb     (   20170,    7)
        NL pseudopotentials             8.62 Mb     (   20170,   28)
        Each V/rho on FFT grid         11.12 Mb     (  729000)
        Each G-vector array             1.23 Mb     (  161227)
        G-vector shells                 0.01 Mb     (    1510)
     Largest temporary arrays     est. size (Mb)     dimensions
        Auxiliary wavefunctions         4.31 Mb     (   20170,   28)
        Each subspace H/S matrix        0.01 Mb     (      28,   28)
        Each <psi_i|beta_j> matrix      0.00 Mb     (      28,    7)
        Arrays for rho mixing          88.99 Mb     (  729000,    8)

     Initial potential from superposition of free atoms
     Check: negative starting charge=   -0.000640

     starting charge   13.97327, renormalised to   14.00000

     negative rho (up, down):  6.414E-04 0.000E+00
     Starting wfc are random

     total cpu time spent up to now is        1.7 secs

     per-process dynamical memory:   141.6 Mb

     Self-consistent Calculation

     iteration #  1     ecut=    50.00 Ry     beta=0.20
     Davidson diagonalization with overlap
     ethr =  1.00E-02,  avg # of iterations =  9.0

     negative rho (up, down):  4.356E-04 0.000E+00

     total cpu time spent up to now is        5.0 secs

     total energy              =     -29.99234974 Ry
     Harris-Foulkes estimate   =     -30.22246005 Ry
     estimated scf accuracy    <       0.90476307 Ry

     iteration #  2     ecut=    50.00 Ry     beta=0.20
     Davidson diagonalization with overlap
     ethr =  6.46E-03,  avg # of iterations =  1.0

     negative rho (up, down):  1.222E-04 0.000E+00

     total cpu time spent up to now is        6.8 secs

     total energy              =     -29.78065783 Ry
     Harris-Foulkes estimate   =     -30.01629643 Ry
     estimated scf accuracy    <       0.40770037 Ry

     iteration #  3     ecut=    50.00 Ry     beta=0.20
     Davidson diagonalization with overlap
     ethr =  2.91E-03,  avg # of iterations =  2.0

     negative rho (up, down):  1.579E-04 0.000E+00

     total cpu time spent up to now is        8.8 secs

     total energy              =     -29.94438799 Ry
     Harris-Foulkes estimate   =     -29.90282729 Ry
     estimated scf accuracy    <       0.08393433 Ry

     iteration #  4     ecut=    50.00 Ry     beta=0.20
     Davidson diagonalization with overlap
     ethr =  6.00E-04,  avg # of iterations =  2.0

     negative rho (up, down):  2.111E-05 0.000E+00

     total cpu time spent up to now is       10.7 secs

     total energy              =     -29.84803385 Ry
     Harris-Foulkes estimate   =     -29.95663126 Ry
     estimated scf accuracy    <       0.26015761 Ry

     iteration #  5     ecut=    50.00 Ry     beta=0.20
     Davidson diagonalization with overlap
     ethr =  6.00E-04,  avg # of iterations =  2.0

     negative rho (up, down):  2.322E-06 0.000E+00

     total cpu time spent up to now is       12.7 secs

     total energy              =     -29.87448842 Ry
     Harris-Foulkes estimate   =     -29.87820454 Ry
     estimated scf accuracy    <       0.01210360 Ry

     iteration #  6     ecut=    50.00 Ry     beta=0.20
     Davidson diagonalization with overlap
     ethr =  8.65E-05,  avg # of iterations =  1.0

     negative rho (up, down):  1.537E-06 0.000E+00

     total cpu time spent up to now is       14.5 secs

     total energy              =     -29.87377125 Ry
     Harris-Foulkes estimate   =     -29.87532426 Ry
     estimated scf accuracy    <       0.00335989 Ry

     iteration #  7     ecut=    50.00 Ry     beta=0.20
     Davidson diagonalization with overlap
     ethr =  2.40E-05,  avg # of iterations =  2.0

     negative rho (up, down):  2.001E-08 0.000E+00

     total cpu time spent up to now is       16.5 secs

     total energy              =     -29.87486065 Ry
     Harris-Foulkes estimate   =     -29.87495805 Ry
     estimated scf accuracy    <       0.00023885 Ry

     iteration #  8     ecut=    50.00 Ry     beta=0.20
     Davidson diagonalization with overlap
     ethr =  1.71E-06,  avg # of iterations =  2.0

     negative rho (up, down):  2.225E-08 0.000E+00

     total cpu time spent up to now is       18.4 secs

     total energy              =     -29.87491479 Ry
     Harris-Foulkes estimate   =     -29.87491595 Ry
     estimated scf accuracy    <       0.00001321 Ry

     iteration #  9     ecut=    50.00 Ry     beta=0.20
     Davidson diagonalization with overlap
     ethr =  9.43E-08,  avg # of iterations =  2.0

     total cpu time spent up to now is       20.4 secs

     total energy              =     -29.87491732 Ry
     Harris-Foulkes estimate   =     -29.87491619 Ry
     estimated scf accuracy    <       0.00000714 Ry

     iteration # 10     ecut=    50.00 Ry     beta=0.20
     Davidson diagonalization with overlap
     ethr =  5.10E-08,  avg # of iterations =  1.0

     total cpu time spent up to now is       22.3 secs

     total energy              =     -29.87491428 Ry
     Harris-Foulkes estimate   =     -29.87491775 Ry
     estimated scf accuracy    <       0.00000707 Ry

     iteration # 11     ecut=    50.00 Ry     beta=0.20
     Davidson diagonalization with overlap
     ethr =  5.05E-08,  avg # of iterations =  2.0

     total cpu time spent up to now is       24.1 secs

     End of self-consistent calculation

          k = 0.0000 0.0000 0.0000 ( 20170 PWs)   bands (ev):

   -17.9568 -14.9310 -10.3307  -9.9236  -8.5731  -8.0689  -7.4580

     highest occupied level (ev):    -7.4580

!    total energy              =     -29.87491529 Ry
     Harris-Foulkes estimate   =     -29.87491540 Ry
     estimated scf accuracy    <       0.00000015 Ry

     The total energy is the sum of the following terms:

     one-electron contribution =     -87.00715228 Ry
     hartree contribution      =      45.11544516 Ry
     xc contribution           =     -11.25271281 Ry
     ewald contribution        =      23.26950464 Ry

     convergence has been achieved in  11 iterations

     Forces acting on atoms (Ry/au):

     atom    1 type  1   force =     0.01581119    0.01972106    0.01923724
     atom    2 type  1   force =    -0.01585542   -0.05921496   -0.09105840
     atom    3 type  2   force =     0.02453595    0.02646655   -0.02644471
     atom    4 type  2   force =     0.02885177    0.00313771    0.00546042
     atom    5 type  2   force =    -0.03698209    0.00178436   -0.01799145
     atom    6 type  2   force =    -0.01166351   -0.02685609    0.01206294
     atom    7 type  2   force =    -0.01310814    0.00673314    0.02486379
     atom    8 type  2   force =     0.00841025    0.02822823    0.07387016

     Total force =     0.160591     Total SCF correction =     0.000745


     entering subroutine stress ...

          total   stress  (Ry/bohr**3)                   (kbar)     P=   -3.30
  -0.00002955  -0.00002127   0.00001681         -4.35     -3.13      2.47
  -0.00002127  -0.00003679   0.00001436         -3.13     -5.41      2.11
   0.00001681   0.00001436  -0.00000101          2.47      2.11     -0.15


     init_run     :      1.65s CPU      1.71s WALL (       1 calls)
     electrons    :     22.05s CPU     22.32s WALL (       1 calls)
     forces       :      1.04s CPU      1.05s WALL (       1 calls)
     stress       :      1.33s CPU      1.37s WALL (       1 calls)

     Called by init_run:
     wfcinit      :      0.16s CPU      0.17s WALL (       1 calls)
     potinit      :      1.16s CPU      1.19s WALL (       1 calls)

     Called by electrons:
     c_bands      :      6.54s CPU      6.57s WALL (      11 calls)
     sum_band     :      1.83s CPU      1.84s WALL (      11 calls)
     v_of_rho     :     13.53s CPU     13.73s WALL (      12 calls)
     mix_rho      :      0.98s CPU      1.03s WALL (      11 calls)

     Called by c_bands:
     init_us_2    :      0.29s CPU      0.29s WALL (      23 calls)
     regterg      :      5.99s CPU      6.02s WALL (      11 calls)

     Called by *egterg:
     h_psi        :      5.77s CPU      5.79s WALL (      38 calls)
     g_psi        :      0.07s CPU      0.07s WALL (      26 calls)
     rdiaghg      :      0.01s CPU      0.01s WALL (      37 calls)

     Called by h_psi:
     add_vuspsi   :      0.08s CPU      0.08s WALL (      38 calls)

     General routines
     calbec       :      0.11s CPU      0.11s WALL (      43 calls)
     fft          :      3.69s CPU      3.76s WALL (     139 calls)
     fftw         :      5.24s CPU      5.26s WALL (     324 calls)

     Parallel routines
     fft_scatter  :      2.18s CPU      2.22s WALL (     463 calls)

     PWSCF        :    26.10s CPU        26.49s WALL


   This run was terminated on:  17:33:34   4Jul2020            

=------------------------------------------------------------------------------=
   JOB DONE.
=------------------------------------------------------------------------------=
