
     Program PWSCF v.5.1.1 starts on  4Jul2020 at 16:11:39 

     This program is part of the open-source Quantum ESPRESSO suite
     for quantum simulation of materials; please cite
         "P. Giannozzi et al., J. Phys.:Condens. Matter 21 395502 (2009);
          URL http://www.quantum-espresso.org", 
     in publications or presentations arising from this work. More details at
     http://www.quantum-espresso.org/quote

     Parallel version (MPI), running on     1 processors
     Waiting for input...
     Reading input from standard input
Warning: card &IONS ignored
Warning: card / ignored
Warning: card &CELL ignored
Warning: card / ignored

     Current dimensions of program PWSCF are:
     Max number of different atomic species (ntypx) = 10
     Max number of k-points (npk) =  40000
     Max angular momentum in pseudopotentials (lmaxx) =  3

     gamma-point specific algorithms are used

     Subspace diagonalization in iterative solution of the eigenvalue problem:
     a serial algorithm will be used


     G-vector sticks info
     --------------------
     sticks:   dense  smooth     PW     G-vecs:    dense   smooth      PW
     Sum        5689    5689   1433               322453   322453   40339
     Tot        2845    2845    717



     bravais-lattice index     =            1
     lattice parameter (alat)  =      18.8973  a.u.
     unit-cell volume          =    6748.3346 (a.u.)^3
     number of atoms/cell      =            8
     number of atomic types    =            2
     number of electrons       =        14.00
     number of Kohn-Sham states=            7
     kinetic-energy cutoff     =      50.0000  Ry
     charge density cutoff     =     200.0000  Ry
     convergence threshold     =      1.0E-06
     mixing beta               =       0.2000
     number of iterations used =            8  plain     mixing
     Exchange-correlation      = PBE ( 1  4  3  4 0 0)

     celldm(1)=  18.897261  celldm(2)=   0.000000  celldm(3)=   0.000000
     celldm(4)=   0.000000  celldm(5)=   0.000000  celldm(6)=   0.000000

     crystal axes: (cart. coord. in units of alat)
               a(1) = (   1.000000   0.000000   0.000000 )  
               a(2) = (   0.000000   1.000000   0.000000 )  
               a(3) = (   0.000000   0.000000   1.000000 )  

     reciprocal axes: (cart. coord. in units 2 pi/alat)
               b(1) = (  1.000000  0.000000  0.000000 )  
               b(2) = (  0.000000  1.000000  0.000000 )  
               b(3) = (  0.000000  0.000000  1.000000 )  


     PseudoPot. # 1 for C  read from file:
     ../../pseudo-potentials/C_ONCV_PBE-1.0.upf
     MD5 check sum: 40f8c33130f0afa4272e9dcc1c4fb0df
     Pseudo is Norm-conserving, Zval =  4.0
     Generated using ONCVPSP code by D. R. Hamann
     Using radial grid of  602 points,  4 beta functions with: 
                l(1) =   0
                l(2) =   0
                l(3) =   1
                l(4) =   1

     PseudoPot. # 2 for H  read from file:
     ../../pseudo-potentials/H_ONCV_PBE-1.0.upf
     MD5 check sum: 10f92816c437af099bca1a183851adc8
     Pseudo is Norm-conserving, Zval =  1.0
     Generated using ONCVPSP code by D. R. Hamann
     Using radial grid of  602 points,  2 beta functions with: 
                l(1) =   0
                l(2) =   0

     atomic species   valence    mass     pseudopotential
        C              4.00     1.00000     C ( 1.00)
        H              1.00     1.00000     H ( 1.00)

     No symmetry found



   Cartesian axes

     site n.     atom                  positions (alat units)
         1           C   tau(   1) = (   1.7445480   2.1857600   1.9987440  )
         2           C   tau(   2) = (   1.8462280   2.2995480   2.0045280  )
         3           H   tau(   3) = (   1.6566960   2.1706280   2.0632680  )
         4           H   tau(   4) = (   1.8066960   2.0929880   2.0128600  )
         5           H   tau(   5) = (   1.7054800   2.1852720   1.8972760  )
         6           H   tau(   6) = (   1.8295880   2.3899000   2.0569000  )
         7           H   tau(   7) = (   1.8822560   2.3078960   1.8967360  )
         8           H   tau(   8) = (   1.9423400   2.2486720   2.0339600  )

     number of k points=     1
                       cart. coord. in units 2pi/alat
        k(    1) = (   0.0000000   0.0000000   0.0000000), wk =   2.0000000

     Dense  grid:   161227 G-vectors     FFT dimensions: (  90,  90,  90)

     Largest allocated arrays     est. size (Mb)     dimensions
        Kohn-Sham Wavefunctions         2.15 Mb     (   20170,    7)
        NL pseudopotentials             8.62 Mb     (   20170,   28)
        Each V/rho on FFT grid         11.12 Mb     (  729000)
        Each G-vector array             1.23 Mb     (  161227)
        G-vector shells                 0.01 Mb     (    1510)
     Largest temporary arrays     est. size (Mb)     dimensions
        Auxiliary wavefunctions         4.31 Mb     (   20170,   28)
        Each subspace H/S matrix        0.01 Mb     (      28,   28)
        Each <psi_i|beta_j> matrix      0.00 Mb     (      28,    7)
        Arrays for rho mixing          88.99 Mb     (  729000,    8)

     Initial potential from superposition of free atoms
     Check: negative starting charge=   -0.000643

     starting charge   13.97327, renormalised to   14.00000

     negative rho (up, down):  6.441E-04 0.000E+00
     Starting wfc are random

     total cpu time spent up to now is        2.0 secs

     per-process dynamical memory:   141.6 Mb

     Self-consistent Calculation

     iteration #  1     ecut=    50.00 Ry     beta=0.20
     Davidson diagonalization with overlap
     ethr =  1.00E-02,  avg # of iterations =  9.0

     negative rho (up, down):  4.446E-04 0.000E+00

     total cpu time spent up to now is        5.6 secs

     total energy              =     -29.97142166 Ry
     Harris-Foulkes estimate   =     -30.20651444 Ry
     estimated scf accuracy    <       0.91478061 Ry

     iteration #  2     ecut=    50.00 Ry     beta=0.20
     Davidson diagonalization with overlap
     ethr =  6.53E-03,  avg # of iterations =  1.0

     negative rho (up, down):  1.277E-04 0.000E+00

     total cpu time spent up to now is        7.5 secs

     total energy              =     -29.76062527 Ry
     Harris-Foulkes estimate   =     -29.99595979 Ry
     estimated scf accuracy    <       0.40748505 Ry

     iteration #  3     ecut=    50.00 Ry     beta=0.20
     Davidson diagonalization with overlap
     ethr =  2.91E-03,  avg # of iterations =  2.0

     negative rho (up, down):  1.620E-04 0.000E+00

     total cpu time spent up to now is        9.6 secs

     total energy              =     -29.92755926 Ry
     Harris-Foulkes estimate   =     -29.88649964 Ry
     estimated scf accuracy    <       0.09028771 Ry

     iteration #  4     ecut=    50.00 Ry     beta=0.20
     Davidson diagonalization with overlap
     ethr =  6.45E-04,  avg # of iterations =  2.0

     negative rho (up, down):  2.105E-05 0.000E+00

     total cpu time spent up to now is       11.6 secs

     total energy              =     -29.82668926 Ry
     Harris-Foulkes estimate   =     -29.93922120 Ry
     estimated scf accuracy    <       0.26559975 Ry

     iteration #  5     ecut=    50.00 Ry     beta=0.20
     Davidson diagonalization with overlap
     ethr =  6.45E-04,  avg # of iterations =  2.0

     negative rho (up, down):  1.907E-06 0.000E+00

     total cpu time spent up to now is       13.7 secs

     total energy              =     -29.85655408 Ry
     Harris-Foulkes estimate   =     -29.85959425 Ry
     estimated scf accuracy    <       0.00973370 Ry

     iteration #  6     ecut=    50.00 Ry     beta=0.20
     Davidson diagonalization with overlap
     ethr =  6.95E-05,  avg # of iterations =  2.0

     negative rho (up, down):  1.931E-06 0.000E+00

     total cpu time spent up to now is       15.7 secs

     total energy              =     -29.85641940 Ry
     Harris-Foulkes estimate   =     -29.85745030 Ry
     estimated scf accuracy    <       0.00218592 Ry

     iteration #  7     ecut=    50.00 Ry     beta=0.20
     Davidson diagonalization with overlap
     ethr =  1.56E-05,  avg # of iterations =  3.0

     negative rho (up, down):  1.543E-07 0.000E+00

     total cpu time spent up to now is       17.9 secs

     total energy              =     -29.85711175 Ry
     Harris-Foulkes estimate   =     -29.85718905 Ry
     estimated scf accuracy    <       0.00023167 Ry

     iteration #  8     ecut=    50.00 Ry     beta=0.20
     Davidson diagonalization with overlap
     ethr =  1.65E-06,  avg # of iterations =  2.0

     total cpu time spent up to now is       20.0 secs

     total energy              =     -29.85713524 Ry
     Harris-Foulkes estimate   =     -29.85713876 Ry
     estimated scf accuracy    <       0.00002635 Ry

     iteration #  9     ecut=    50.00 Ry     beta=0.20
     Davidson diagonalization with overlap
     ethr =  1.88E-07,  avg # of iterations =  2.0

     total cpu time spent up to now is       22.1 secs

     total energy              =     -29.85713606 Ry
     Harris-Foulkes estimate   =     -29.85713733 Ry
     estimated scf accuracy    <       0.00000699 Ry

     iteration # 10     ecut=    50.00 Ry     beta=0.20
     Davidson diagonalization with overlap
     ethr =  5.00E-08,  avg # of iterations =  2.0

     total cpu time spent up to now is       24.0 secs

     total energy              =     -29.85713497 Ry
     Harris-Foulkes estimate   =     -29.85713656 Ry
     estimated scf accuracy    <       0.00000333 Ry

     iteration # 11     ecut=    50.00 Ry     beta=0.20
     Davidson diagonalization with overlap
     ethr =  2.38E-08,  avg # of iterations =  2.0

     total cpu time spent up to now is       25.8 secs

     End of self-consistent calculation

          k = 0.0000 0.0000 0.0000 ( 20170 PWs)   bands (ev):

   -18.3503 -14.7235 -10.6435 -10.0700  -8.7502  -7.9228  -7.0445

     highest occupied level (ev):    -7.0445

!    total energy              =     -29.85713563 Ry
     Harris-Foulkes estimate   =     -29.85713589 Ry
     estimated scf accuracy    <       0.00000034 Ry

     The total energy is the sum of the following terms:

     one-electron contribution =     -88.58248573 Ry
     hartree contribution      =      45.89561340 Ry
     xc contribution           =     -11.27204351 Ry
     ewald contribution        =      24.10178021 Ry

     convergence has been achieved in  11 iterations

     Forces acting on atoms (Ry/au):

     atom    1 type  1   force =     0.01092125   -0.04841220   -0.00835373
     atom    2 type  1   force =     0.08556265   -0.09303205   -0.06753459
     atom    3 type  2   force =     0.01233929    0.02919688    0.01560092
     atom    4 type  2   force =    -0.03081185    0.01295527   -0.01200862
     atom    5 type  2   force =    -0.01328078   -0.01398266   -0.00993983
     atom    6 type  2   force =    -0.01148094    0.03992456    0.01437815
     atom    7 type  2   force =    -0.03248269    0.04014526    0.03240884
     atom    8 type  2   force =    -0.02076692    0.03320494    0.03544887

     Total force =     0.185715     Total SCF correction =     0.000830


     entering subroutine stress ...

          total   stress  (Ry/bohr**3)                   (kbar)     P=   -2.43
  -0.00002553   0.00001478   0.00001163         -3.76      2.17      1.71
   0.00001478  -0.00000760   0.00000680          2.17     -1.12      1.00
   0.00001163   0.00000680  -0.00001647          1.71      1.00     -2.42


     init_run     :      1.85s CPU      1.94s WALL (       1 calls)
     electrons    :     23.46s CPU     23.81s WALL (       1 calls)
     forces       :      1.02s CPU      1.03s WALL (       1 calls)
     stress       :      1.25s CPU      1.28s WALL (       1 calls)

     Called by init_run:
     wfcinit      :      0.22s CPU      0.24s WALL (       1 calls)
     potinit      :      1.30s CPU      1.34s WALL (       1 calls)

     Called by electrons:
     c_bands      :      7.51s CPU      7.56s WALL (      11 calls)
     sum_band     :      2.09s CPU      2.10s WALL (      11 calls)
     v_of_rho     :     13.65s CPU     13.89s WALL (      12 calls)
     mix_rho      :      1.17s CPU      1.24s WALL (      11 calls)

     Called by c_bands:
     init_us_2    :      0.31s CPU      0.31s WALL (      23 calls)
     regterg      :      6.94s CPU      6.98s WALL (      11 calls)

     Called by *egterg:
     h_psi        :      6.71s CPU      6.75s WALL (      41 calls)
     g_psi        :      0.08s CPU      0.08s WALL (      29 calls)
     rdiaghg      :      0.01s CPU      0.01s WALL (      40 calls)

     Called by h_psi:
     add_vuspsi   :      0.10s CPU      0.10s WALL (      41 calls)

     General routines
     calbec       :      0.12s CPU      0.13s WALL (      46 calls)
     fft          :      3.79s CPU      3.88s WALL (     139 calls)
     fftw         :      5.98s CPU      6.02s WALL (     330 calls)

     Parallel routines
     fft_scatter  :      2.47s CPU      2.51s WALL (     469 calls)

     PWSCF        :    27.62s CPU        28.11s WALL


   This run was terminated on:  16:12: 7   4Jul2020            

=------------------------------------------------------------------------------=
   JOB DONE.
=------------------------------------------------------------------------------=
