
     Program PWSCF v.5.1.1 starts on  4Jul2020 at 16:11:39 

     This program is part of the open-source Quantum ESPRESSO suite
     for quantum simulation of materials; please cite
         "P. Giannozzi et al., J. Phys.:Condens. Matter 21 395502 (2009);
          URL http://www.quantum-espresso.org", 
     in publications or presentations arising from this work. More details at
     http://www.quantum-espresso.org/quote

     Parallel version (MPI), running on     1 processors
     Waiting for input...
     Reading input from standard input
Warning: card &IONS ignored
Warning: card / ignored
Warning: card &CELL ignored
Warning: card / ignored

     Current dimensions of program PWSCF are:
     Max number of different atomic species (ntypx) = 10
     Max number of k-points (npk) =  40000
     Max angular momentum in pseudopotentials (lmaxx) =  3

     gamma-point specific algorithms are used

     Subspace diagonalization in iterative solution of the eigenvalue problem:
     a serial algorithm will be used


     G-vector sticks info
     --------------------
     sticks:   dense  smooth     PW     G-vecs:    dense   smooth      PW
     Sum        5689    5689   1433               322453   322453   40339
     Tot        2845    2845    717



     bravais-lattice index     =            1
     lattice parameter (alat)  =      18.8973  a.u.
     unit-cell volume          =    6748.3346 (a.u.)^3
     number of atoms/cell      =            8
     number of atomic types    =            2
     number of electrons       =        14.00
     number of Kohn-Sham states=            7
     kinetic-energy cutoff     =      50.0000  Ry
     charge density cutoff     =     200.0000  Ry
     convergence threshold     =      1.0E-06
     mixing beta               =       0.2000
     number of iterations used =            8  plain     mixing
     Exchange-correlation      = PBE ( 1  4  3  4 0 0)

     celldm(1)=  18.897261  celldm(2)=   0.000000  celldm(3)=   0.000000
     celldm(4)=   0.000000  celldm(5)=   0.000000  celldm(6)=   0.000000

     crystal axes: (cart. coord. in units of alat)
               a(1) = (   1.000000   0.000000   0.000000 )  
               a(2) = (   0.000000   1.000000   0.000000 )  
               a(3) = (   0.000000   0.000000   1.000000 )  

     reciprocal axes: (cart. coord. in units 2 pi/alat)
               b(1) = (  1.000000  0.000000  0.000000 )  
               b(2) = (  0.000000  1.000000  0.000000 )  
               b(3) = (  0.000000  0.000000  1.000000 )  


     PseudoPot. # 1 for C  read from file:
     ../../pseudo-potentials/C_ONCV_PBE-1.0.upf
     MD5 check sum: 40f8c33130f0afa4272e9dcc1c4fb0df
     Pseudo is Norm-conserving, Zval =  4.0
     Generated using ONCVPSP code by D. R. Hamann
     Using radial grid of  602 points,  4 beta functions with: 
                l(1) =   0
                l(2) =   0
                l(3) =   1
                l(4) =   1

     PseudoPot. # 2 for H  read from file:
     ../../pseudo-potentials/H_ONCV_PBE-1.0.upf
     MD5 check sum: 10f92816c437af099bca1a183851adc8
     Pseudo is Norm-conserving, Zval =  1.0
     Generated using ONCVPSP code by D. R. Hamann
     Using radial grid of  602 points,  2 beta functions with: 
                l(1) =   0
                l(2) =   0

     atomic species   valence    mass     pseudopotential
        C              4.00     1.00000     C ( 1.00)
        H              1.00     1.00000     H ( 1.00)

     No symmetry found



   Cartesian axes

     site n.     atom                  positions (alat units)
         1           C   tau(   1) = (   1.7538000   2.1785600   1.9973320  )
         2           C   tau(   2) = (   1.8428800   2.3004920   2.0028000  )
         3           H   tau(   3) = (   1.7252760   2.1656800   1.8909560  )
         4           H   tau(   4) = (   1.6563920   2.2038760   2.0533840  )
         5           H   tau(   5) = (   1.7835920   2.0837680   2.0429800  )
         6           H   tau(   6) = (   1.9266240   2.2972200   2.0768040  )
         7           H   tau(   7) = (   1.7721960   2.3842320   2.0287120  )
         8           H   tau(   8) = (   1.8886720   2.3351640   1.9056040  )

     number of k points=     1
                       cart. coord. in units 2pi/alat
        k(    1) = (   0.0000000   0.0000000   0.0000000), wk =   2.0000000

     Dense  grid:   161227 G-vectors     FFT dimensions: (  90,  90,  90)

     Largest allocated arrays     est. size (Mb)     dimensions
        Kohn-Sham Wavefunctions         2.15 Mb     (   20170,    7)
        NL pseudopotentials             8.62 Mb     (   20170,   28)
        Each V/rho on FFT grid         11.12 Mb     (  729000)
        Each G-vector array             1.23 Mb     (  161227)
        G-vector shells                 0.01 Mb     (    1510)
     Largest temporary arrays     est. size (Mb)     dimensions
        Auxiliary wavefunctions         4.31 Mb     (   20170,   28)
        Each subspace H/S matrix        0.01 Mb     (      28,   28)
        Each <psi_i|beta_j> matrix      0.00 Mb     (      28,    7)
        Arrays for rho mixing          88.99 Mb     (  729000,    8)

     Initial potential from superposition of free atoms
     Check: negative starting charge=   -0.000641

     starting charge   13.97327, renormalised to   14.00000

     negative rho (up, down):  6.421E-04 0.000E+00
     Starting wfc are random

     total cpu time spent up to now is        2.2 secs

     per-process dynamical memory:   141.6 Mb

     Self-consistent Calculation

     iteration #  1     ecut=    50.00 Ry     beta=0.20
     Davidson diagonalization with overlap
     ethr =  1.00E-02,  avg # of iterations =  9.0

     negative rho (up, down):  4.402E-04 0.000E+00

     total cpu time spent up to now is        5.7 secs

     total energy              =     -29.98535813 Ry
     Harris-Foulkes estimate   =     -30.22077574 Ry
     estimated scf accuracy    <       0.90863826 Ry

     iteration #  2     ecut=    50.00 Ry     beta=0.20
     Davidson diagonalization with overlap
     ethr =  6.49E-03,  avg # of iterations =  1.0

     negative rho (up, down):  1.364E-04 0.000E+00

     total cpu time spent up to now is        7.7 secs

     total energy              =     -29.79364736 Ry
     Harris-Foulkes estimate   =     -30.01086126 Ry
     estimated scf accuracy    <       0.38717342 Ry

     iteration #  3     ecut=    50.00 Ry     beta=0.20
     Davidson diagonalization with overlap
     ethr =  2.77E-03,  avg # of iterations =  2.0

     negative rho (up, down):  1.932E-04 0.000E+00

     total cpu time spent up to now is        9.8 secs

     total energy              =     -29.95943749 Ry
     Harris-Foulkes estimate   =     -29.91029074 Ry
     estimated scf accuracy    <       0.08500283 Ry

     iteration #  4     ecut=    50.00 Ry     beta=0.20
     Davidson diagonalization with overlap
     ethr =  6.07E-04,  avg # of iterations =  2.0

     negative rho (up, down):  1.118E-05 0.000E+00

     total cpu time spent up to now is       11.8 secs

     total energy              =     -29.83938013 Ry
     Harris-Foulkes estimate   =     -29.97592971 Ry
     estimated scf accuracy    <       0.30490044 Ry

     iteration #  5     ecut=    50.00 Ry     beta=0.20
     Davidson diagonalization with overlap
     ethr =  6.07E-04,  avg # of iterations =  2.0

     negative rho (up, down):  8.726E-07 0.000E+00

     total cpu time spent up to now is       14.0 secs

     total energy              =     -29.88225062 Ry
     Harris-Foulkes estimate   =     -29.88333232 Ry
     estimated scf accuracy    <       0.00438455 Ry

     iteration #  6     ecut=    50.00 Ry     beta=0.20
     Davidson diagonalization with overlap
     ethr =  3.13E-05,  avg # of iterations =  2.0

     negative rho (up, down):  1.039E-06 0.000E+00

     total cpu time spent up to now is       16.1 secs

     total energy              =     -29.88215794 Ry
     Harris-Foulkes estimate   =     -29.88281810 Ry
     estimated scf accuracy    <       0.00147169 Ry

     iteration #  7     ecut=    50.00 Ry     beta=0.20
     Davidson diagonalization with overlap
     ethr =  1.05E-05,  avg # of iterations =  2.0

     total cpu time spent up to now is       18.2 secs

     total energy              =     -29.88250511 Ry
     Harris-Foulkes estimate   =     -29.88253628 Ry
     estimated scf accuracy    <       0.00009988 Ry

     iteration #  8     ecut=    50.00 Ry     beta=0.20
     Davidson diagonalization with overlap
     ethr =  7.13E-07,  avg # of iterations =  2.0

     total cpu time spent up to now is       20.4 secs

     total energy              =     -29.88252165 Ry
     Harris-Foulkes estimate   =     -29.88252773 Ry
     estimated scf accuracy    <       0.00001673 Ry

     iteration #  9     ecut=    50.00 Ry     beta=0.20
     Davidson diagonalization with overlap
     ethr =  1.19E-07,  avg # of iterations =  2.0

     total cpu time spent up to now is       22.4 secs

     total energy              =     -29.88252283 Ry
     Harris-Foulkes estimate   =     -29.88252361 Ry
     estimated scf accuracy    <       0.00000294 Ry

     iteration # 10     ecut=    50.00 Ry     beta=0.20
     Davidson diagonalization with overlap
     ethr =  2.10E-08,  avg # of iterations =  2.0

     total cpu time spent up to now is       24.3 secs

     End of self-consistent calculation

          k = 0.0000 0.0000 0.0000 ( 20170 PWs)   bands (ev):

   -18.2774 -14.5786 -10.3392 -10.0791  -8.8309  -7.8027  -7.2812

     highest occupied level (ev):    -7.2812

!    total energy              =     -29.88252283 Ry
     Harris-Foulkes estimate   =     -29.88252317 Ry
     estimated scf accuracy    <       0.00000059 Ry

     The total energy is the sum of the following terms:

     one-electron contribution =     -87.90424065 Ry
     hartree contribution      =      45.55104905 Ry
     xc contribution           =     -11.22399374 Ry
     ewald contribution        =      23.69466252 Ry

     convergence has been achieved in  10 iterations

     Forces acting on atoms (Ry/au):

     atom    1 type  1   force =    -0.07715313    0.00924291   -0.00150248
     atom    2 type  1   force =     0.01646331    0.06073161    0.00797854
     atom    3 type  2   force =    -0.00355202   -0.01871776    0.01663174
     atom    4 type  2   force =     0.04023091   -0.01549910   -0.02862960
     atom    5 type  2   force =     0.02333305    0.00061767   -0.00974543
     atom    6 type  2   force =    -0.02369658    0.00088606   -0.01000811
     atom    7 type  2   force =     0.03657696   -0.00901996    0.00222865
     atom    8 type  2   force =    -0.01220250   -0.02824144    0.02304671

     Total force =     0.132610     Total SCF correction =     0.000718


     entering subroutine stress ...

          total   stress  (Ry/bohr**3)                   (kbar)     P=   -4.07
  -0.00003503   0.00001140   0.00001184         -5.15      1.68      1.74
   0.00001140  -0.00001246   0.00001091          1.68     -1.83      1.60
   0.00001184   0.00001091  -0.00003548          1.74      1.60     -5.22


     init_run     :      2.09s CPU      2.15s WALL (       1 calls)
     electrons    :     21.79s CPU     22.11s WALL (       1 calls)
     forces       :      1.07s CPU      1.08s WALL (       1 calls)
     stress       :      1.37s CPU      1.42s WALL (       1 calls)

     Called by init_run:
     wfcinit      :      0.27s CPU      0.28s WALL (       1 calls)
     potinit      :      1.46s CPU      1.50s WALL (       1 calls)

     Called by electrons:
     c_bands      :      7.32s CPU      7.36s WALL (      10 calls)
     sum_band     :      1.87s CPU      1.88s WALL (      10 calls)
     v_of_rho     :     12.75s CPU     12.97s WALL (      11 calls)
     mix_rho      :      0.97s CPU      1.03s WALL (      10 calls)

     Called by c_bands:
     init_us_2    :      0.28s CPU      0.29s WALL (      21 calls)
     regterg      :      6.79s CPU      6.84s WALL (      10 calls)

     Called by *egterg:
     h_psi        :      6.63s CPU      6.66s WALL (      37 calls)
     g_psi        :      0.08s CPU      0.08s WALL (      26 calls)
     rdiaghg      :      0.01s CPU      0.01s WALL (      36 calls)

     Called by h_psi:
     add_vuspsi   :      0.10s CPU      0.10s WALL (      37 calls)

     General routines
     calbec       :      0.12s CPU      0.12s WALL (      42 calls)
     fft          :      3.56s CPU      3.65s WALL (     128 calls)
     fftw         :      5.83s CPU      5.85s WALL (     308 calls)

     Parallel routines
     fft_scatter  :      2.42s CPU      2.46s WALL (     436 calls)

     PWSCF        :    26.36s CPU        26.82s WALL


   This run was terminated on:  16:12: 6   4Jul2020            

=------------------------------------------------------------------------------=
   JOB DONE.
=------------------------------------------------------------------------------=
