ITEM: TIMESTEP
0
ITEM: NUMBER OF ATOMS
8
ITEM: BOX BOUNDS pp pp pp
-2.0000000000000000e+01 2.0000000000000000e+01
-2.0000000000000000e+01 2.0000000000000000e+01
-2.0000000000000000e+01 2.0000000000000000e+01
ITEM: ATOMS id type xs ys zs
3 2 0.448185 0.523455 0.510977
4 2 0.429097 0.539907 0.474475
1 1 0.436933 0.545839 0.5
5 2 0.414696 0.552319 0.514549
8 2 0.450359 0.596857 0.489023
2 1 0.461612 0.574473 0.5
6 2 0.483849 0.567993 0.485451
7 2 0.469447 0.580406 0.525525
ITEM: TIMESTEP
100
ITEM: NUMBER OF ATOMS
8
ITEM: BOX BOUNDS pp pp pp
-2.0000000000000000e+01 2.0000000000000000e+01
-2.0000000000000000e+01 2.0000000000000000e+01
-2.0000000000000000e+01 2.0000000000000000e+01
ITEM: ATOMS id type xs ys zs
3 2 0.448346 0.522819 0.510884
4 2 0.428478 0.540668 0.473271
1 1 0.436397 0.545491 0.500013
5 2 0.413215 0.551019 0.515573
8 2 0.448084 0.596043 0.488789
2 1 0.462242 0.574759 0.499985
6 2 0.486157 0.568277 0.485872
7 2 0.470226 0.58286 0.525641
ITEM: TIMESTEP
200
ITEM: NUMBER OF ATOMS
8
ITEM: BOX BOUNDS pp pp pp
-2.0000000000000000e+01 2.0000000000000000e+01
-2.0000000000000000e+01 2.0000000000000000e+01
-2.0000000000000000e+01 2.0000000000000000e+01
ITEM: ATOMS id type xs ys zs
3 2 0.446185 0.524656 0.514819
4 2 0.432804 0.538734 0.474614
1 1 0.436866 0.545719 0.500012
5 2 0.414091 0.554051 0.510651
8 2 0.447535 0.59685 0.493263
2 1 0.46175 0.57455 0.49991
6 2 0.481397 0.568858 0.483307
7 2 0.472772 0.578301 0.524274
ITEM: TIMESTEP
300
ITEM: NUMBER OF ATOMS
8
ITEM: BOX BOUNDS pp pp pp
-2.0000000000000000e+01 2.0000000000000000e+01
-2.0000000000000000e+01 2.0000000000000000e+01
-2.0000000000000000e+01 2.0000000000000000e+01
ITEM: ATOMS id type xs ys zs
3 2 0.450272 0.521859 0.505994
4 2 0.424939 0.543317 0.474703
1 1 0.436515 0.544648 0.50024
5 2 0.416702 0.551857 0.518945
8 2 0.453099 0.596521 0.484751
2 1 0.461985 0.575711 0.499676
6 2 0.48581 0.563975 0.49015
7 2 0.465341 0.582857 0.526457
ITEM: TIMESTEP
400
ITEM: NUMBER OF ATOMS
8
ITEM: BOX BOUNDS pp pp pp
-2.0000000000000000e+01 2.0000000000000000e+01
-2.0000000000000000e+01 2.0000000000000000e+01
-2.0000000000000000e+01 2.0000000000000000e+01
ITEM: ATOMS id type xs ys zs
3 2 0.450502 0.525482 0.514778
4 2 0.431829 0.536965 0.474701
1 1 0.436689 0.54575 0.499951
5 2 0.41494 0.554719 0.512764
8 2 0.448423 0.59873 0.490578
2 1 0.461787 0.574615 0.499928
6 2 0.481087 0.568316 0.482445
7 2 0.469665 0.576094 0.526169
ITEM: TIMESTEP
500
ITEM: NUMBER OF ATOMS
8
ITEM: BOX BOUNDS pp pp pp
-2.0000000000000000e+01 2.0000000000000000e+01
-2.0000000000000000e+01 2.0000000000000000e+01
-2.0000000000000000e+01 2.0000000000000000e+01
ITEM: ATOMS id type xs ys zs
3 2 0.448839 0.525346 0.510469
4 2 0.429824 0.539745 0.474452
1 1 0.435969 0.54509 0.500277
5 2 0.415123 0.551477 0.516949
8 2 0.451469 0.594601 0.487382
2 1 0.462491 0.57529 0.499831
6 2 0.483987 0.569071 0.483825
7 2 0.467395 0.579892 0.525635
ITEM: TIMESTEP
600
ITEM: NUMBER OF ATOMS
8
ITEM: BOX BOUNDS pp pp pp
-2.0000000000000000e+01 2.0000000000000000e+01
-2.0000000000000000e+01 2.0000000000000000e+01
-2.0000000000000000e+01 2.0000000000000000e+01
ITEM: ATOMS id type xs ys zs
3 2 0.45103 0.52183 0.508877
4 2 0.427652 0.545213 0.474392
1 1 0.436695 0.54579 0.500207
5 2 0.417356 0.551717 0.518572
8 2 0.449269 0.593187 0.481621
2 1 0.461831 0.574575 0.500025
6 2 0.484544 0.566308 0.487742
7 2 0.466005 0.582052 0.526031
ITEM: TIMESTEP
700
ITEM: NUMBER OF ATOMS
8
ITEM: BOX BOUNDS pp pp pp
-2.0000000000000000e+01 2.0000000000000000e+01
-2.0000000000000000e+01 2.0000000000000000e+01
-2.0000000000000000e+01 2.0000000000000000e+01
ITEM: ATOMS id type xs ys zs
3 2 0.444338 0.526066 0.516926
4 2 0.433641 0.536001 0.474249
1 1 0.436392 0.544599 0.500212
5 2 0.412428 0.555952 0.507523
8 2 0.447768 0.597997 0.494435
2 1 0.462214 0.57572 0.499988
6 2 0.481017 0.568393 0.480442
7 2 0.475698 0.576453 0.524045
ITEM: TIMESTEP
800
ITEM: NUMBER OF ATOMS
8
ITEM: BOX BOUNDS pp pp pp
-2.0000000000000000e+01 2.0000000000000000e+01
-2.0000000000000000e+01 2.0000000000000000e+01
-2.0000000000000000e+01 2.0000000000000000e+01
ITEM: ATOMS id type xs ys zs
3 2 0.451672 0.52238 0.504079
4 2 0.423376 0.543959 0.476156
1 1 0.436825 0.545819 0.499912
5 2 0.418795 0.550683 0.519269
8 2 0.452336 0.59477 0.484076
2 1 0.461845 0.574475 0.499825
6 2 0.485153 0.563409 0.494633
7 2 0.4628 0.585952 0.524923
ITEM: TIMESTEP
900
ITEM: NUMBER OF ATOMS
8
ITEM: BOX BOUNDS pp pp pp
-2.0000000000000000e+01 2.0000000000000000e+01
-2.0000000000000000e+01 2.0000000000000000e+01
-2.0000000000000000e+01 2.0000000000000000e+01
ITEM: ATOMS id type xs ys zs
3 2 0.449465 0.524585 0.513593
4 2 0.431439 0.535801 0.47412
1 1 0.436208 0.545292 0.499935
5 2 0.411912 0.553076 0.511589
8 2 0.44893 0.598802 0.494689
2 1 0.462306 0.575102 0.499658
6 2 0.485087 0.567584 0.4852
7 2 0.469158 0.580117 0.525657
ITEM: TIMESTEP
1000
ITEM: NUMBER OF ATOMS
8
ITEM: BOX BOUNDS pp pp pp
-2.0000000000000000e+01 2.0000000000000000e+01
-2.0000000000000000e+01 2.0000000000000000e+01
-2.0000000000000000e+01 2.0000000000000000e+01
ITEM: ATOMS id type xs ys zs
3 2 0.446257 0.525135 0.51465
4 2 0.432753 0.537289 0.474349
1 1 0.437161 0.545803 0.499768
5 2 0.413744 0.553773 0.511417
8 2 0.448916 0.597434 0.4914
2 1 0.461463 0.574485 0.500124
6 2 0.482681 0.568394 0.483429
7 2 0.470338 0.579198 0.526043
ITEM: TIMESTEP
1100
ITEM: NUMBER OF ATOMS
8
ITEM: BOX BOUNDS pp pp pp
-2.0000000000000000e+01 2.0000000000000000e+01
-2.0000000000000000e+01 2.0000000000000000e+01
-2.0000000000000000e+01 2.0000000000000000e+01
ITEM: ATOMS id type xs ys zs
3 2 0.447357 0.519651 0.506013
4 2 0.424627 0.544564 0.475056
1 1 0.436765 0.545225 0.500033
5 2 0.416522 0.548208 0.518944
8 2 0.45442 0.593809 0.479973
2 1 0.46186 0.575158 0.500254
6 2 0.487351 0.568185 0.49137
7 2 0.46439 0.585687 0.525223
ITEM: TIMESTEP
1200
ITEM: NUMBER OF ATOMS
8
ITEM: BOX BOUNDS pp pp pp
-2.0000000000000000e+01 2.0000000000000000e+01
-2.0000000000000000e+01 2.0000000000000000e+01
-2.0000000000000000e+01 2.0000000000000000e+01
ITEM: ATOMS id type xs ys zs
3 2 0.442255 0.52633 0.518231
4 2 0.435894 0.533747 0.475323
1 1 0.437181 0.545868 0.50031
5 2 0.411395 0.554478 0.505961
8 2 0.449508 0.597335 0.493728
2 1 0.461464 0.574462 0.499948
6 2 0.480165 0.573976 0.479566
7 2 0.475217 0.574861 0.524111
ITEM: TIMESTEP
1300
ITEM: NUMBER OF ATOMS
8
ITEM: BOX BOUNDS pp pp pp
-2.0000000000000000e+01 2.0000000000000000e+01
-2.0000000000000000e+01 2.0000000000000000e+01
-2.0000000000000000e+01 2.0000000000000000e+01
ITEM: ATOMS id type xs ys zs
3 2 0.449431 0.521242 0.504045
4 2 0.422949 0.541189 0.477095
1 1 0.436533 0.5457 0.500368
5 2 0.41663 0.547796 0.518586
8 2 0.456227 0.596009 0.481432
2 1 0.461957 0.57469 0.499671
6 2 0.487607 0.567861 0.494038
7 2 0.463441 0.585907 0.524344
ITEM: TIMESTEP
1400
ITEM: NUMBER OF ATOMS
8
ITEM: BOX BOUNDS pp pp pp
-2.0000000000000000e+01 2.0000000000000000e+01
-2.0000000000000000e+01 2.0000000000000000e+01
-2.0000000000000000e+01 2.0000000000000000e+01
ITEM: ATOMS id type xs ys zs
3 2 0.446224 0.524878 0.514278
4 2 0.430151 0.534399 0.475669
1 1 0.437243 0.546287 0.499903
5 2 0.412499 0.552999 0.511624
8 2 0.450703 0.597759 0.491567
2 1 0.461291 0.574123 0.499824
6 2 0.48466 0.568601 0.484497
7 2 0.47152 0.581139 0.525617
ITEM: TIMESTEP
1500
ITEM: NUMBER OF ATOMS
8
ITEM: BOX BOUNDS pp pp pp
-2.0000000000000000e+01 2.0000000000000000e+01
-2.0000000000000000e+01 2.0000000000000000e+01
-2.0000000000000000e+01 2.0000000000000000e+01
ITEM: ATOMS id type xs ys zs
3 2 0.443567 0.523611 0.51542
4 2 0.430418 0.535607 0.475715
1 1 0.436895 0.545566 0.499874
5 2 0.41324 0.551659 0.510942
8 2 0.450439 0.598897 0.491841
2 1 0.461928 0.5747 0.499974
6 2 0.482641 0.568549 0.48505
7 2 0.472009 0.583167 0.522844
ITEM: TIMESTEP
1600
ITEM: NUMBER OF ATOMS
8
ITEM: BOX BOUNDS pp pp pp
-2.0000000000000000e+01 2.0000000000000000e+01
-2.0000000000000000e+01 2.0000000000000000e+01
-2.0000000000000000e+01 2.0000000000000000e+01
ITEM: ATOMS id type xs ys zs
3 2 0.446946 0.521139 0.503603
4 2 0.423269 0.545896 0.476474
1 1 0.437463 0.546131 0.500287
5 2 0.417304 0.544367 0.519846
8 2 0.456173 0.592926 0.482051
2 1 0.461171 0.574187 0.499674
6 2 0.488263 0.565633 0.495894
7 2 0.462611 0.590909 0.522598
ITEM: TIMESTEP
1700
ITEM: NUMBER OF ATOMS
8
ITEM: BOX BOUNDS pp pp pp
-2.0000000000000000e+01 2.0000000000000000e+01
-2.0000000000000000e+01 2.0000000000000000e+01
-2.0000000000000000e+01 2.0000000000000000e+01
ITEM: ATOMS id type xs ys zs
3 2 0.440571 0.523245 0.516823
4 2 0.434755 0.53479 0.475051
1 1 0.436694 0.545575 0.500377
5 2 0.410786 0.550206 0.505975
8 2 0.452572 0.60195 0.496327
2 1 0.46185 0.574645 0.49949
6 2 0.483613 0.572331 0.483117
7 2 0.473348 0.579519 0.524289
ITEM: TIMESTEP
1800
ITEM: NUMBER OF ATOMS
8
ITEM: BOX BOUNDS pp pp pp
-2.0000000000000000e+01 2.0000000000000000e+01
-2.0000000000000000e+01 2.0000000000000000e+01
-2.0000000000000000e+01 2.0000000000000000e+01
ITEM: ATOMS id type xs ys zs
3 2 0.445446 0.525617 0.514309
4 2 0.429806 0.533653 0.4762
1 1 0.437132 0.546315 0.499103
5 2 0.414862 0.551813 0.514442
8 2 0.453733 0.597198 0.487282
2 1 0.46108 0.574137 0.500652
6 2 0.483597 0.570923 0.484892
7 2 0.472143 0.580072 0.525795
ITEM: TIMESTEP
1900
ITEM: NUMBER OF ATOMS
8
ITEM: BOX BOUNDS pp pp pp
-2.0000000000000000e+01 2.0000000000000000e+01
-2.0000000000000000e+01 2.0000000000000000e+01
-2.0000000000000000e+01 2.0000000000000000e+01
ITEM: ATOMS id type xs ys zs
3 2 0.448611 0.522112 0.508919
4 2 0.425544 0.535819 0.47608
1 1 0.436556 0.545867 0.499342
5 2 0.415593 0.550025 0.517255
8 2 0.455557 0.594864 0.483813
2 1 0.461579 0.57484 0.500516
6 2 0.487034 0.571154 0.489088
7 2 0.468172 0.582259 0.526532
ITEM: TIMESTEP
2000
ITEM: NUMBER OF ATOMS
8
ITEM: BOX BOUNDS pp pp pp
-2.0000000000000000e+01 2.0000000000000000e+01
-2.0000000000000000e+01 2.0000000000000000e+01
-2.0000000000000000e+01 2.0000000000000000e+01
ITEM: ATOMS id type xs ys zs
3 2 0.448197 0.521659 0.507054
4 2 0.427814 0.540536 0.475086
1 1 0.437268 0.545924 0.50049
5 2 0.412681 0.550937 0.511635
8 2 0.45277 0.596241 0.485733
2 1 0.461443 0.574364 0.500091
6 2 0.484747 0.570861 0.488134
7 2 0.467443 0.580998 0.525435
ITEM: TIMESTEP
2100
ITEM: NUMBER OF ATOMS
8
ITEM: BOX BOUNDS pp pp pp
-2.0000000000000000e+01 2.0000000000000000e+01
-2.0000000000000000e+01 2.0000000000000000e+01
-2.0000000000000000e+01 2.0000000000000000e+01
ITEM: ATOMS id type xs ys zs
3 2 0.448319 0.522131 0.509463
4 2 0.428219 0.541291 0.474421
1 1 0.436983 0.545358 0.500684
5 2 0.412429 0.550283 0.509372
8 2 0.450595 0.597886 0.488888
2 1 0.461535 0.574757 0.499891
6 2 0.485843 0.568735 0.485148
7 2 0.470548 0.582968 0.52585
ITEM: TIMESTEP
2200
ITEM: NUMBER OF ATOMS
8
ITEM: BOX BOUNDS pp pp pp
-2.0000000000000000e+01 2.0000000000000000e+01
-2.0000000000000000e+01 2.0000000000000000e+01
-2.0000000000000000e+01 2.0000000000000000e+01
ITEM: ATOMS id type xs ys zs
3 2 0.450123 0.522614 0.507935
4 2 0.424143 0.542253 0.475913
1 1 0.43728 0.545567 0.499535
5 2 0.415595 0.548755 0.517742
8 2 0.451296 0.595921 0.484599
2 1 0.461474 0.574586 0.500536
6 2 0.484379 0.566372 0.48928
7 2 0.467601 0.586923 0.52368
ITEM: TIMESTEP
2300
ITEM: NUMBER OF ATOMS
8
ITEM: BOX BOUNDS pp pp pp
-2.0000000000000000e+01 2.0000000000000000e+01
-2.0000000000000000e+01 2.0000000000000000e+01
-2.0000000000000000e+01 2.0000000000000000e+01
ITEM: ATOMS id type xs ys zs
3 2 0.446433 0.525072 0.515263
4 2 0.430346 0.535166 0.474037
1 1 0.436965 0.545466 0.499682
5 2 0.41313 0.551877 0.51247
8 2 0.449513 0.597715 0.495206
2 1 0.461671 0.57499 0.499924
6 2 0.48292 0.569364 0.482638
7 2 0.472205 0.580032 0.525079
ITEM: TIMESTEP
2400
ITEM: NUMBER OF ATOMS
8
ITEM: BOX BOUNDS pp pp pp
-2.0000000000000000e+01 2.0000000000000000e+01
-2.0000000000000000e+01 2.0000000000000000e+01
-2.0000000000000000e+01 2.0000000000000000e+01
ITEM: ATOMS id type xs ys zs
3 2 0.446531 0.524152 0.514477
4 2 0.432192 0.535918 0.475596
1 1 0.436934 0.545695 0.499815
5 2 0.413863 0.553903 0.511634
8 2 0.446665 0.599577 0.496674
2 1 0.461825 0.574447 0.499648
6 2 0.48288 0.570757 0.482747
7 2 0.470941 0.578665 0.52528
ITEM: TIMESTEP
2500
ITEM: NUMBER OF ATOMS
8
ITEM: BOX BOUNDS pp pp pp
-2.0000000000000000e+01 2.0000000000000000e+01
-2.0000000000000000e+01 2.0000000000000000e+01
-2.0000000000000000e+01 2.0000000000000000e+01
ITEM: ATOMS id type xs ys zs
3 2 0.450963 0.521539 0.499871
4 2 0.420259 0.54457 0.4765
1 1 0.436724 0.54534 0.50007
5 2 0.419185 0.547474 0.521952
8 2 0.455243 0.592964 0.482325
2 1 0.461866 0.575121 0.500023
6 2 0.486826 0.565088 0.493724
7 2 0.462609 0.587522 0.52453
ITEM: TIMESTEP
2600
ITEM: NUMBER OF ATOMS
8
ITEM: BOX BOUNDS pp pp pp
-2.0000000000000000e+01 2.0000000000000000e+01
-2.0000000000000000e+01 2.0000000000000000e+01
-2.0000000000000000e+01 2.0000000000000000e+01
ITEM: ATOMS id type xs ys zs
3 2 0.448728 0.525017 0.513717
4 2 0.431668 0.537532 0.474645
1 1 0.43679 0.545623 0.499731
5 2 0.413551 0.552216 0.511508
8 2 0.450094 0.597994 0.488028
2 1 0.461525 0.574895 0.500783
6 2 0.479537 0.568929 0.481211
7 2 0.474796 0.576799 0.524762
ITEM: TIMESTEP
2700
ITEM: NUMBER OF ATOMS
8
ITEM: BOX BOUNDS pp pp pp
-2.0000000000000000e+01 2.0000000000000000e+01
-2.0000000000000000e+01 2.0000000000000000e+01
-2.0000000000000000e+01 2.0000000000000000e+01
ITEM: ATOMS id type xs ys zs
3 2 0.448206 0.525593 0.515142
4 2 0.433376 0.538572 0.473666
1 1 0.436502 0.545384 0.5004
5 2 0.410504 0.55122 0.50837
8 2 0.450371 0.598126 0.493523
2 1 0.461854 0.575112 0.500029
6 2 0.480902 0.569387 0.480082
7 2 0.474515 0.575846 0.524101
ITEM: TIMESTEP
2800
ITEM: NUMBER OF ATOMS
8
ITEM: BOX BOUNDS pp pp pp
-2.0000000000000000e+01 2.0000000000000000e+01
-2.0000000000000000e+01 2.0000000000000000e+01
-2.0000000000000000e+01 2.0000000000000000e+01
ITEM: ATOMS id type xs ys zs
3 2 0.449313 0.52474 0.512993
4 2 0.43014 0.539771 0.473551
1 1 0.436756 0.545508 0.499953
5 2 0.413726 0.551987 0.513222
8 2 0.448618 0.598656 0.493016
2 1 0.461838 0.574694 0.499795
6 2 0.48259 0.567985 0.484479
7 2 0.470656 0.579121 0.52574
ITEM: TIMESTEP
2900
ITEM: NUMBER OF ATOMS
8
ITEM: BOX BOUNDS pp pp pp
-2.0000000000000000e+01 2.0000000000000000e+01
-2.0000000000000000e+01 2.0000000000000000e+01
-2.0000000000000000e+01 2.0000000000000000e+01
ITEM: ATOMS id type xs ys zs
3 2 0.450004 0.521346 0.503225
4 2 0.42318 0.543536 0.47633
1 1 0.436785 0.545114 0.499732
5 2 0.420585 0.550271 0.520901
8 2 0.451683 0.597032 0.485895
2 1 0.461761 0.575077 0.499917
6 2 0.486728 0.564228 0.492626
7 2 0.463434 0.585978 0.525205
ITEM: TIMESTEP
3000
ITEM: NUMBER OF ATOMS
8
ITEM: BOX BOUNDS pp pp pp
-2.0000000000000000e+01 2.0000000000000000e+01
-2.0000000000000000e+01 2.0000000000000000e+01
-2.0000000000000000e+01 2.0000000000000000e+01
ITEM: ATOMS id type xs ys zs
3 2 0.444563 0.524468 0.515861
4 2 0.434611 0.533794 0.473513
1 1 0.436798 0.545221 0.499528
5 2 0.414883 0.556548 0.511634
8 2 0.446908 0.596977 0.496277
2 1 0.461754 0.575013 0.500342
6 2 0.478639 0.57261 0.480682
7 2 0.47594 0.577481 0.523582
ITEM: TIMESTEP
3100
ITEM: NUMBER OF ATOMS
8
ITEM: BOX BOUNDS pp pp pp
-2.0000000000000000e+01 2.0000000000000000e+01
-2.0000000000000000e+01 2.0000000000000000e+01
-2.0000000000000000e+01 2.0000000000000000e+01
ITEM: ATOMS id type xs ys zs
3 2 0.446714 0.522525 0.512432
4 2 0.432873 0.540054 0.475037
1 1 0.436725 0.54533 0.500447
5 2 0.413388 0.553201 0.511127
8 2 0.446238 0.598396 0.492936
2 1 0.461849 0.574667 0.499908
6 2 0.482844 0.573269 0.479494
7 2 0.473223 0.577252 0.524741
ITEM: TIMESTEP
3200
ITEM: NUMBER OF ATOMS
8
ITEM: BOX BOUNDS pp pp pp
-2.0000000000000000e+01 2.0000000000000000e+01
-2.0000000000000000e+01 2.0000000000000000e+01
-2.0000000000000000e+01 2.0000000000000000e+01
ITEM: ATOMS id type xs ys zs
3 2 0.448105 0.524821 0.514839
4 2 0.433835 0.539716 0.472356
1 1 0.436707 0.545263 0.50095
5 2 0.409987 0.552233 0.506446
8 2 0.450294 0.598595 0.498068
2 1 0.461718 0.574995 0.499464
6 2 0.479914 0.572211 0.479099
7 2 0.474928 0.574008 0.52426
ITEM: TIMESTEP
3300
ITEM: NUMBER OF ATOMS
8
ITEM: BOX BOUNDS pp pp pp
-2.0000000000000000e+01 2.0000000000000000e+01
-2.0000000000000000e+01 2.0000000000000000e+01
-2.0000000000000000e+01 2.0000000000000000e+01
ITEM: ATOMS id type xs ys zs
3 2 0.452894 0.522262 0.498321
4 2 0.41801 0.547142 0.480915
1 1 0.436522 0.545251 0.499516
5 2 0.422287 0.544704 0.522415
8 2 0.45688 0.59584 0.480916
2 1 0.461723 0.574962 0.500342
6 2 0.486048 0.56503 0.495224
7 2 0.463081 0.587146 0.523893
ITEM: TIMESTEP
3400
ITEM: NUMBER OF ATOMS
8
ITEM: BOX BOUNDS pp pp pp
-2.0000000000000000e+01 2.0000000000000000e+01
-2.0000000000000000e+01 2.0000000000000000e+01
-2.0000000000000000e+01 2.0000000000000000e+01
ITEM: ATOMS id type xs ys zs
3 2 0.445392 0.525608 0.483454
1 1 0.436985 0.545473 0.499258
5 2 0.435575 0.537124 0.525679
4 2 0.410758 0.552709 0.492758
8 2 0.465074 0.585028 0.475841
2 1 0.461425 0.574684 0.500474
6 2 0.487357 0.564526 0.510444
7 2 0.453075 0.597786 0.51502
ITEM: TIMESTEP
3500
ITEM: NUMBER OF ATOMS
8
ITEM: BOX BOUNDS pp pp pp
-2.0000000000000000e+01 2.0000000000000000e+01
-2.0000000000000000e+01 2.0000000000000000e+01
-2.0000000000000000e+01 2.0000000000000000e+01
ITEM: ATOMS id type xs ys zs
3 2 0.441946 0.527822 0.477785
1 1 0.436767 0.545556 0.500219
5 2 0.438685 0.531207 0.523574
4 2 0.409999 0.554189 0.496079
8 2 0.470734 0.583086 0.474574
2 1 0.46181 0.574677 0.499991
6 2 0.483152 0.569305 0.514494
7 2 0.450737 0.596281 0.510992
ITEM: TIMESTEP
3600
ITEM: NUMBER OF ATOMS
8
ITEM: BOX BOUNDS pp pp pp
-2.0000000000000000e+01 2.0000000000000000e+01
-2.0000000000000000e+01 2.0000000000000000e+01
-2.0000000000000000e+01 2.0000000000000000e+01
ITEM: ATOMS id type xs ys zs
3 2 0.446662 0.52318 0.490143
1 1 0.436905 0.545451 0.500147
5 2 0.426394 0.539031 0.524776
4 2 0.417754 0.552129 0.483093
8 2 0.459278 0.590128 0.478216
2 1 0.461541 0.574635 0.499821
6 2 0.489427 0.568998 0.501111
7 2 0.457296 0.590173 0.523035
ITEM: TIMESTEP
3700
ITEM: NUMBER OF ATOMS
8
ITEM: BOX BOUNDS pp pp pp
-2.0000000000000000e+01 2.0000000000000000e+01
-2.0000000000000000e+01 2.0000000000000000e+01
-2.0000000000000000e+01 2.0000000000000000e+01
ITEM: ATOMS id type xs ys zs
3 2 0.437877 0.53059 0.475515
1 1 0.436999 0.545362 0.499779
5 2 0.440429 0.527102 0.519916
4 2 0.410144 0.554537 0.502275
8 2 0.47466 0.578491 0.475109
2 1 0.461557 0.574869 0.500448
6 2 0.482237 0.572585 0.517796
7 2 0.450139 0.598596 0.506687
ITEM: TIMESTEP
3800
ITEM: NUMBER OF ATOMS
8
ITEM: BOX BOUNDS pp pp pp
-2.0000000000000000e+01 2.0000000000000000e+01
-2.0000000000000000e+01 2.0000000000000000e+01
-2.0000000000000000e+01 2.0000000000000000e+01
ITEM: ATOMS id type xs ys zs
3 2 0.449933 0.522107 0.493146
1 1 0.436926 0.545603 0.499099
5 2 0.426107 0.541488 0.525478
4 2 0.414864 0.548076 0.483861
8 2 0.45896 0.591654 0.480414
2 1 0.46141 0.574789 0.500587
6 2 0.487015 0.564922 0.498248
7 2 0.461244 0.591746 0.522595
ITEM: TIMESTEP
3900
ITEM: NUMBER OF ATOMS
8
ITEM: BOX BOUNDS pp pp pp
-2.0000000000000000e+01 2.0000000000000000e+01
-2.0000000000000000e+01 2.0000000000000000e+01
-2.0000000000000000e+01 2.0000000000000000e+01
ITEM: ATOMS id type xs ys zs
3 2 0.441069 0.528327 0.478926
1 1 0.436863 0.545533 0.499594
5 2 0.438777 0.531682 0.521298
4 2 0.410258 0.552991 0.499331
8 2 0.470798 0.583342 0.474638
2 1 0.461616 0.574595 0.500421
6 2 0.484115 0.568746 0.515626
7 2 0.451388 0.598048 0.510005
ITEM: TIMESTEP
4000
ITEM: NUMBER OF ATOMS
8
ITEM: BOX BOUNDS pp pp pp
-2.0000000000000000e+01 2.0000000000000000e+01
-2.0000000000000000e+01 2.0000000000000000e+01
-2.0000000000000000e+01 2.0000000000000000e+01
ITEM: ATOMS id type xs ys zs
3 2 0.442086 0.528251 0.478623
1 1 0.436992 0.545772 0.500208
5 2 0.436219 0.529053 0.524346
4 2 0.411253 0.554403 0.495242
8 2 0.469448 0.585076 0.47659
2 1 0.461727 0.574506 0.499611
6 2 0.484344 0.568898 0.513918
7 2 0.450209 0.595666 0.513442
ITEM: TIMESTEP
4100
ITEM: NUMBER OF ATOMS
8
ITEM: BOX BOUNDS pp pp pp
-2.0000000000000000e+01 2.0000000000000000e+01
-2.0000000000000000e+01 2.0000000000000000e+01
-2.0000000000000000e+01 2.0000000000000000e+01
ITEM: ATOMS id type xs ys zs
3 2 0.444599 0.51996 0.4931
1 1 0.437242 0.545195 0.499774
5 2 0.425325 0.542444 0.523281
4 2 0.41693 0.552815 0.481408
8 2 0.455783 0.592407 0.479193
2 1 0.461705 0.5746 0.500403
6 2 0.48914 0.571352 0.49679
7 2 0.459055 0.588126 0.524118
ITEM: TIMESTEP
4200
ITEM: NUMBER OF ATOMS
8
ITEM: BOX BOUNDS pp pp pp
-2.0000000000000000e+01 2.0000000000000000e+01
-2.0000000000000000e+01 2.0000000000000000e+01
-2.0000000000000000e+01 2.0000000000000000e+01
ITEM: ATOMS id type xs ys zs
3 2 0.435542 0.530084 0.476653
1 1 0.436978 0.545296 0.49946
5 2 0.440944 0.52664 0.519929
4 2 0.413055 0.556219 0.501638
8 2 0.471827 0.578494 0.47591
2 1 0.461737 0.574718 0.50056
6 2 0.483911 0.575068 0.517026
7 2 0.448318 0.597995 0.508609
ITEM: TIMESTEP
4300
ITEM: NUMBER OF ATOMS
8
ITEM: BOX BOUNDS pp pp pp
-2.0000000000000000e+01 2.0000000000000000e+01
-2.0000000000000000e+01 2.0000000000000000e+01
-2.0000000000000000e+01 2.0000000000000000e+01
ITEM: ATOMS id type xs ys zs
3 2 0.414933 0.550316 0.482872
5 2 0.44913 0.521606 0.492384
1 1 0.436879 0.545256 0.499478
4 2 0.425171 0.540174 0.525888
7 2 0.45718 0.592544 0.480083
8 2 0.48808 0.567231 0.495641
2 1 0.461796 0.57493 0.500561
6 2 0.459582 0.590569 0.522677
ITEM: TIMESTEP
4400
ITEM: NUMBER OF ATOMS
8
ITEM: BOX BOUNDS pp pp pp
-2.0000000000000000e+01 2.0000000000000000e+01
-2.0000000000000000e+01 2.0000000000000000e+01
-2.0000000000000000e+01 2.0000000000000000e+01
ITEM: ATOMS id type xs ys zs
3 2 0.410208 0.551939 0.500575
5 2 0.441199 0.534079 0.476098
1 1 0.436814 0.545552 0.500578
4 2 0.442679 0.526273 0.517852
7 2 0.475442 0.579059 0.475191
8 2 0.480965 0.568457 0.517646
2 1 0.461268 0.574963 0.499621
6 2 0.450653 0.598709 0.510266
ITEM: TIMESTEP
4500
ITEM: NUMBER OF ATOMS
8
ITEM: BOX BOUNDS pp pp pp
-2.0000000000000000e+01 2.0000000000000000e+01
-2.0000000000000000e+01 2.0000000000000000e+01
-2.0000000000000000e+01 2.0000000000000000e+01
ITEM: ATOMS id type xs ys zs
3 2 0.41481 0.55009 0.515548
5 2 0.428192 0.539154 0.474337
1 1 0.436701 0.545564 0.49971
4 2 0.452283 0.522621 0.506094
7 2 0.481449 0.568469 0.483888
8 2 0.473447 0.577392 0.52534
2 1 0.461391 0.575079 0.500273
6 2 0.450844 0.599266 0.494987
ITEM: TIMESTEP
4600
ITEM: NUMBER OF ATOMS
8
ITEM: BOX BOUNDS pp pp pp
-2.0000000000000000e+01 2.0000000000000000e+01
-2.0000000000000000e+01 2.0000000000000000e+01
-2.0000000000000000e+01 2.0000000000000000e+01
ITEM: ATOMS id type xs ys zs
3 2 0.433369 0.539387 0.525543
5 2 0.4117 0.553701 0.490676
1 1 0.437219 0.545408 0.498902
4 2 0.445768 0.52421 0.484867
7 2 0.488117 0.565835 0.503981
8 2 0.453518 0.594356 0.51872
2 1 0.461582 0.574551 0.501059
6 2 0.460107 0.587661 0.476674
ITEM: TIMESTEP
4700
ITEM: NUMBER OF ATOMS
8
ITEM: BOX BOUNDS pp pp pp
-2.0000000000000000e+01 2.0000000000000000e+01
-2.0000000000000000e+01 2.0000000000000000e+01
-2.0000000000000000e+01 2.0000000000000000e+01
ITEM: ATOMS id type xs ys zs
3 2 0.444628 0.523755 0.514702
5 2 0.413681 0.555136 0.509416
1 1 0.436858 0.545242 0.499548
4 2 0.433057 0.534639 0.474179
7 2 0.479243 0.573629 0.521385
8 2 0.44668 0.597668 0.501816
2 1 0.461729 0.574992 0.500503
6 2 0.477834 0.577035 0.477893
ITEM: TIMESTEP
4800
ITEM: NUMBER OF ATOMS
8
ITEM: BOX BOUNDS pp pp pp
-2.0000000000000000e+01 2.0000000000000000e+01
-2.0000000000000000e+01 2.0000000000000000e+01
-2.0000000000000000e+01 2.0000000000000000e+01
ITEM: ATOMS id type xs ys zs
3 2 0.449066 0.520841 0.500772
5 2 0.416286 0.548155 0.519156
1 1 0.437081 0.545557 0.500523
4 2 0.427504 0.544648 0.474982
7 2 0.468114 0.57822 0.525798
8 2 0.449722 0.598124 0.491149
2 1 0.461444 0.574798 0.49951
6 2 0.485164 0.570435 0.487742
ITEM: TIMESTEP
4900
ITEM: NUMBER OF ATOMS
8
ITEM: BOX BOUNDS pp pp pp
-2.0000000000000000e+01 2.0000000000000000e+01
-2.0000000000000000e+01 2.0000000000000000e+01
-2.0000000000000000e+01 2.0000000000000000e+01
ITEM: ATOMS id type xs ys zs
3 2 0.448835 0.522542 0.508273
5 2 0.414908 0.549235 0.515542
1 1 0.436734 0.545423 0.499805
4 2 0.429705 0.541065 0.473324
7 2 0.473683 0.576752 0.525604
8 2 0.449476 0.599529 0.494801
2 1 0.46152 0.574983 0.500267
6 2 0.482489 0.570704 0.481594
ITEM: TIMESTEP
5000
ITEM: NUMBER OF ATOMS
8
ITEM: BOX BOUNDS pp pp pp
-2.0000000000000000e+01 2.0000000000000000e+01
-2.0000000000000000e+01 2.0000000000000000e+01
-2.0000000000000000e+01 2.0000000000000000e+01
ITEM: ATOMS id type xs ys zs
3 2 0.446552 0.527571 0.517722
5 2 0.412113 0.551529 0.510273
1 1 0.436904 0.545451 0.498832
4 2 0.433458 0.5347 0.473663
7 2 0.47972 0.573496 0.52102
8 2 0.449847 0.599814 0.501005
2 1 0.461658 0.574911 0.501064
6 2 0.473733 0.573233 0.477549
ITEM: TIMESTEP
5100
ITEM: NUMBER OF ATOMS
8
ITEM: BOX BOUNDS pp pp pp
-2.0000000000000000e+01 2.0000000000000000e+01
-2.0000000000000000e+01 2.0000000000000000e+01
-2.0000000000000000e+01 2.0000000000000000e+01
ITEM: ATOMS id type xs ys zs
3 2 0.449446 0.522555 0.492722
5 2 0.42597 0.540904 0.524239
1 1 0.436718 0.545033 0.499287
4 2 0.414792 0.551195 0.483705
7 2 0.459058 0.590238 0.523715
8 2 0.455899 0.592018 0.479993
2 1 0.462005 0.575142 0.500588
6 2 0.488335 0.565673 0.497119
ITEM: TIMESTEP
5200
ITEM: NUMBER OF ATOMS
8
ITEM: BOX BOUNDS pp pp pp
-2.0000000000000000e+01 2.0000000000000000e+01
-2.0000000000000000e+01 2.0000000000000000e+01
-2.0000000000000000e+01 2.0000000000000000e+01
ITEM: ATOMS id type xs ys zs
3 2 0.428286 0.544872 0.473279
5 2 0.447821 0.521457 0.508101
1 1 0.437205 0.545502 0.499997
4 2 0.416056 0.550863 0.516923
7 2 0.447202 0.5976 0.494399
8 2 0.484011 0.572319 0.482396
2 1 0.461684 0.574518 0.499874
6 2 0.468157 0.577308 0.526438
ITEM: TIMESTEP
5300
ITEM: NUMBER OF ATOMS
8
ITEM: BOX BOUNDS pp pp pp
-2.0000000000000000e+01 2.0000000000000000e+01
-2.0000000000000000e+01 2.0000000000000000e+01
-2.0000000000000000e+01 2.0000000000000000e+01
ITEM: ATOMS id type xs ys zs
3 2 0.413233 0.556197 0.492307
5 2 0.44713 0.524007 0.484212
1 1 0.436745 0.545265 0.49994
4 2 0.433277 0.532419 0.523939
7 2 0.464632 0.588357 0.476647
8 2 0.48604 0.566314 0.505711
2 1 0.461851 0.575092 0.500046
6 2 0.450713 0.593107 0.517345
ITEM: TIMESTEP
5400
ITEM: NUMBER OF ATOMS
8
ITEM: BOX BOUNDS pp pp pp
-2.0000000000000000e+01 2.0000000000000000e+01
-2.0000000000000000e+01 2.0000000000000000e+01
-2.0000000000000000e+01 2.0000000000000000e+01
ITEM: ATOMS id type xs ys zs
3 2 0.411191 0.554951 0.49796
5 2 0.443371 0.527512 0.48063
1 1 0.437031 0.545377 0.49917
4 2 0.437869 0.532374 0.52335
7 2 0.466922 0.582933 0.474602
8 2 0.486592 0.56615 0.510912
2 1 0.461428 0.57494 0.500784
6 2 0.450706 0.59696 0.513091
ITEM: TIMESTEP
5500
ITEM: NUMBER OF ATOMS
8
ITEM: BOX BOUNDS pp pp pp
-2.0000000000000000e+01 2.0000000000000000e+01
-2.0000000000000000e+01 2.0000000000000000e+01
-2.0000000000000000e+01 2.0000000000000000e+01
ITEM: ATOMS id type xs ys zs
3 2 0.414924 0.549057 0.483291
5 2 0.450853 0.522981 0.488567
1 1 0.436779 0.545316 0.500049
4 2 0.426438 0.539542 0.525159
7 2 0.458457 0.592528 0.478728
8 2 0.486721 0.564692 0.499717
2 1 0.461567 0.575178 0.500001
6 2 0.460609 0.589969 0.523935
ITEM: TIMESTEP
5600
ITEM: NUMBER OF ATOMS
8
ITEM: BOX BOUNDS pp pp pp
-2.0000000000000000e+01 2.0000000000000000e+01
-2.0000000000000000e+01 2.0000000000000000e+01
-2.0000000000000000e+01 2.0000000000000000e+01
ITEM: ATOMS id type xs ys zs
3 2 0.41053 0.552434 0.497895
5 2 0.440376 0.532292 0.477291
1 1 0.436901 0.545421 0.500138
4 2 0.44051 0.528989 0.521784
7 2 0.470634 0.581075 0.474797
8 2 0.482321 0.569888 0.517416
2 1 0.461623 0.574869 0.499769
6 2 0.451506 0.596521 0.511921
ITEM: TIMESTEP
5700
ITEM: NUMBER OF ATOMS
8
ITEM: BOX BOUNDS pp pp pp
-2.0000000000000000e+01 2.0000000000000000e+01
-2.0000000000000000e+01 2.0000000000000000e+01
-2.0000000000000000e+01 2.0000000000000000e+01
ITEM: ATOMS id type xs ys zs
3 2 0.413414 0.553877 0.488744
5 2 0.443148 0.523544 0.483162
1 1 0.43712 0.545325 0.499673
4 2 0.433378 0.537367 0.52538
7 2 0.460414 0.586613 0.475379
8 2 0.487634 0.570136 0.508804
2 1 0.461762 0.574658 0.500225
6 2 0.453619 0.593325 0.519753
ITEM: TIMESTEP
5800
ITEM: NUMBER OF ATOMS
8
ITEM: BOX BOUNDS pp pp pp
-2.0000000000000000e+01 2.0000000000000000e+01
-2.0000000000000000e+01 2.0000000000000000e+01
-2.0000000000000000e+01 2.0000000000000000e+01
ITEM: ATOMS id type xs ys zs
3 2 0.412047 0.557231 0.500411
5 2 0.436243 0.527712 0.477856
1 1 0.437209 0.545118 0.499134
4 2 0.439596 0.529983 0.522906
7 2 0.470432 0.581473 0.475346
8 2 0.484109 0.572572 0.516676
2 1 0.461819 0.574784 0.50065
6 2 0.447434 0.596863 0.509377
ITEM: TIMESTEP
5900
ITEM: NUMBER OF ATOMS
8
ITEM: BOX BOUNDS pp pp pp
-2.0000000000000000e+01 2.0000000000000000e+01
-2.0000000000000000e+01 2.0000000000000000e+01
-2.0000000000000000e+01 2.0000000000000000e+01
ITEM: ATOMS id type xs ys zs
3 2 0.416245 0.55087 0.517378
5 2 0.427875 0.542247 0.474876
1 1 0.437126 0.545335 0.500262
4 2 0.446958 0.521688 0.506844
7 2 0.484403 0.572209 0.48473
8 2 0.471369 0.578137 0.525368
2 1 0.461427 0.574886 0.499848
6 2 0.448673 0.59688 0.489495
ITEM: TIMESTEP
6000
ITEM: NUMBER OF ATOMS
8
ITEM: BOX BOUNDS pp pp pp
-2.0000000000000000e+01 2.0000000000000000e+01
-2.0000000000000000e+01 2.0000000000000000e+01
-2.0000000000000000e+01 2.0000000000000000e+01
ITEM: ATOMS id type xs ys zs
3 2 0.442693 0.526255 0.519549
5 2 0.40982 0.551758 0.500072
1 1 0.436749 0.545734 0.500642
4 2 0.441837 0.531559 0.476182
7 2 0.480323 0.568818 0.518036
8 2 0.451543 0.598553 0.508808
2 1 0.461354 0.575022 0.49953
6 2 0.474674 0.578703 0.475298
ITEM: TIMESTEP
6100
ITEM: NUMBER OF ATOMS
8
ITEM: BOX BOUNDS pp pp pp
-2.0000000000000000e+01 2.0000000000000000e+01
-2.0000000000000000e+01 2.0000000000000000e+01
-2.0000000000000000e+01 2.0000000000000000e+01
ITEM: ATOMS id type xs ys zs
3 2 0.451785 0.52256 0.496042
1 1 0.436487 0.545648 0.499916
4 2 0.419939 0.544477 0.478514
5 2 0.422275 0.540945 0.523698
8 2 0.458199 0.595498 0.480292