
     Program PWSCF v.5.1.1 starts on  4Jul2020 at 16:11:39 

     This program is part of the open-source Quantum ESPRESSO suite
     for quantum simulation of materials; please cite
         "P. Giannozzi et al., J. Phys.:Condens. Matter 21 395502 (2009);
          URL http://www.quantum-espresso.org", 
     in publications or presentations arising from this work. More details at
     http://www.quantum-espresso.org/quote

     Parallel version (MPI), running on     1 processors
     Waiting for input...
     Reading input from standard input
Warning: card &IONS ignored
Warning: card / ignored
Warning: card &CELL ignored
Warning: card / ignored

     Current dimensions of program PWSCF are:
     Max number of different atomic species (ntypx) = 10
     Max number of k-points (npk) =  40000
     Max angular momentum in pseudopotentials (lmaxx) =  3

     gamma-point specific algorithms are used

     Subspace diagonalization in iterative solution of the eigenvalue problem:
     a serial algorithm will be used


     G-vector sticks info
     --------------------
     sticks:   dense  smooth     PW     G-vecs:    dense   smooth      PW
     Sum        5689    5689   1433               322453   322453   40339
     Tot        2845    2845    717



     bravais-lattice index     =            1
     lattice parameter (alat)  =      18.8973  a.u.
     unit-cell volume          =    6748.3346 (a.u.)^3
     number of atoms/cell      =            8
     number of atomic types    =            2
     number of electrons       =        14.00
     number of Kohn-Sham states=            7
     kinetic-energy cutoff     =      50.0000  Ry
     charge density cutoff     =     200.0000  Ry
     convergence threshold     =      1.0E-06
     mixing beta               =       0.2000
     number of iterations used =            8  plain     mixing
     Exchange-correlation      = PBE ( 1  4  3  4 0 0)

     celldm(1)=  18.897261  celldm(2)=   0.000000  celldm(3)=   0.000000
     celldm(4)=   0.000000  celldm(5)=   0.000000  celldm(6)=   0.000000

     crystal axes: (cart. coord. in units of alat)
               a(1) = (   1.000000   0.000000   0.000000 )  
               a(2) = (   0.000000   1.000000   0.000000 )  
               a(3) = (   0.000000   0.000000   1.000000 )  

     reciprocal axes: (cart. coord. in units 2 pi/alat)
               b(1) = (  1.000000  0.000000  0.000000 )  
               b(2) = (  0.000000  1.000000  0.000000 )  
               b(3) = (  0.000000  0.000000  1.000000 )  


     PseudoPot. # 1 for C  read from file:
     ../../pseudo-potentials/C_ONCV_PBE-1.0.upf
     MD5 check sum: 40f8c33130f0afa4272e9dcc1c4fb0df
     Pseudo is Norm-conserving, Zval =  4.0
     Generated using ONCVPSP code by D. R. Hamann
     Using radial grid of  602 points,  4 beta functions with: 
                l(1) =   0
                l(2) =   0
                l(3) =   1
                l(4) =   1

     PseudoPot. # 2 for H  read from file:
     ../../pseudo-potentials/H_ONCV_PBE-1.0.upf
     MD5 check sum: 10f92816c437af099bca1a183851adc8
     Pseudo is Norm-conserving, Zval =  1.0
     Generated using ONCVPSP code by D. R. Hamann
     Using radial grid of  602 points,  2 beta functions with: 
                l(1) =   0
                l(2) =   0

     atomic species   valence    mass     pseudopotential
        C              4.00     1.00000     C ( 1.00)
        H              1.00     1.00000     H ( 1.00)

     No symmetry found



   Cartesian axes

     site n.     atom                  positions (alat units)
         1           C   tau(   1) = (   1.7507840   2.1800200   1.9947320  )
         2           C   tau(   2) = (   1.8427520   2.3016240   2.0028400  )
         3           H   tau(   3) = (   1.6609520   2.1994560   1.9332920  )
         4           H   tau(   4) = (   1.7202280   2.1554080   2.0966280  )
         5           H   tau(   5) = (   1.7979760   2.0890240   1.9640800  )
         6           H   tau(   6) = (   1.8389120   2.3455920   2.1027440  )
         7           H   tau(   7) = (   1.8246000   2.3840960   1.9296560  )
         8           H   tau(   8) = (   1.9475120   2.2654480   2.0025000  )

     number of k points=     1
                       cart. coord. in units 2pi/alat
        k(    1) = (   0.0000000   0.0000000   0.0000000), wk =   2.0000000

     Dense  grid:   161227 G-vectors     FFT dimensions: (  90,  90,  90)

     Largest allocated arrays     est. size (Mb)     dimensions
        Kohn-Sham Wavefunctions         2.15 Mb     (   20170,    7)
        NL pseudopotentials             8.62 Mb     (   20170,   28)
        Each V/rho on FFT grid         11.12 Mb     (  729000)
        Each G-vector array             1.23 Mb     (  161227)
        G-vector shells                 0.01 Mb     (    1510)
     Largest temporary arrays     est. size (Mb)     dimensions
        Auxiliary wavefunctions         4.31 Mb     (   20170,   28)
        Each subspace H/S matrix        0.01 Mb     (      28,   28)
        Each <psi_i|beta_j> matrix      0.00 Mb     (      28,    7)
        Arrays for rho mixing          88.99 Mb     (  729000,    8)

     Initial potential from superposition of free atoms
     Check: negative starting charge=   -0.000638

     starting charge   13.97327, renormalised to   14.00000

     negative rho (up, down):  6.393E-04 0.000E+00
     Starting wfc are random

     total cpu time spent up to now is        2.1 secs

     per-process dynamical memory:   141.6 Mb

     Self-consistent Calculation

     iteration #  1     ecut=    50.00 Ry     beta=0.20
     Davidson diagonalization with overlap
     ethr =  1.00E-02,  avg # of iterations =  9.0

     negative rho (up, down):  4.442E-04 0.000E+00

     total cpu time spent up to now is        5.7 secs

     total energy              =     -30.00750499 Ry
     Harris-Foulkes estimate   =     -30.25208943 Ry
     estimated scf accuracy    <       0.95110043 Ry

     iteration #  2     ecut=    50.00 Ry     beta=0.20
     Davidson diagonalization with overlap
     ethr =  6.79E-03,  avg # of iterations =  1.0

     negative rho (up, down):  1.327E-04 0.000E+00

     total cpu time spent up to now is        7.6 secs

     total energy              =     -29.79076215 Ry
     Harris-Foulkes estimate   =     -30.03360699 Ry
     estimated scf accuracy    <       0.42043015 Ry

     iteration #  3     ecut=    50.00 Ry     beta=0.20
     Davidson diagonalization with overlap
     ethr =  3.00E-03,  avg # of iterations =  2.0

     negative rho (up, down):  1.752E-04 0.000E+00

     total cpu time spent up to now is        9.7 secs

     total energy              =     -29.96464991 Ry
     Harris-Foulkes estimate   =     -29.91861496 Ry
     estimated scf accuracy    <       0.08616186 Ry

     iteration #  4     ecut=    50.00 Ry     beta=0.20
     Davidson diagonalization with overlap
     ethr =  6.15E-04,  avg # of iterations =  2.0

     negative rho (up, down):  2.338E-05 0.000E+00

     total cpu time spent up to now is       11.7 secs

     total energy              =     -29.86260498 Ry
     Harris-Foulkes estimate   =     -29.97897992 Ry
     estimated scf accuracy    <       0.28389551 Ry

     iteration #  5     ecut=    50.00 Ry     beta=0.20
     Davidson diagonalization with overlap
     ethr =  6.15E-04,  avg # of iterations =  2.0

     negative rho (up, down):  4.241E-06 0.000E+00

     total cpu time spent up to now is       13.9 secs

     total energy              =     -29.88968790 Ry
     Harris-Foulkes estimate   =     -29.89422343 Ry
     estimated scf accuracy    <       0.01524426 Ry

     iteration #  6     ecut=    50.00 Ry     beta=0.20
     Davidson diagonalization with overlap
     ethr =  1.09E-04,  avg # of iterations =  1.0

     negative rho (up, down):  1.825E-06 0.000E+00

     total cpu time spent up to now is       15.8 secs

     total energy              =     -29.88855249 Ry
     Harris-Foulkes estimate   =     -29.89063173 Ry
     estimated scf accuracy    <       0.00436049 Ry

     iteration #  7     ecut=    50.00 Ry     beta=0.20
     Davidson diagonalization with overlap
     ethr =  3.11E-05,  avg # of iterations =  2.0

     negative rho (up, down):  2.571E-08 0.000E+00

     total cpu time spent up to now is       18.0 secs

     total energy              =     -29.88996384 Ry
     Harris-Foulkes estimate   =     -29.89012906 Ry
     estimated scf accuracy    <       0.00039174 Ry

     iteration #  8     ecut=    50.00 Ry     beta=0.20
     Davidson diagonalization with overlap
     ethr =  2.80E-06,  avg # of iterations =  2.0

     negative rho (up, down):  3.277E-08 0.000E+00

     total cpu time spent up to now is       20.2 secs

     total energy              =     -29.89003991 Ry
     Harris-Foulkes estimate   =     -29.89004478 Ry
     estimated scf accuracy    <       0.00002437 Ry

     iteration #  9     ecut=    50.00 Ry     beta=0.20
     Davidson diagonalization with overlap
     ethr =  1.74E-07,  avg # of iterations =  2.0

     total cpu time spent up to now is       22.4 secs

     total energy              =     -29.89004391 Ry
     Harris-Foulkes estimate   =     -29.89004493 Ry
     estimated scf accuracy    <       0.00000859 Ry

     iteration # 10     ecut=    50.00 Ry     beta=0.20
     Davidson diagonalization with overlap
     ethr =  6.14E-08,  avg # of iterations =  2.0

     total cpu time spent up to now is       24.4 secs

     total energy              =     -29.89004228 Ry
     Harris-Foulkes estimate   =     -29.89004527 Ry
     estimated scf accuracy    <       0.00000659 Ry

     iteration # 11     ecut=    50.00 Ry     beta=0.20
     Davidson diagonalization with overlap
     ethr =  4.71E-08,  avg # of iterations =  2.0

     total cpu time spent up to now is       26.1 secs

     End of self-consistent calculation

          k = 0.0000 0.0000 0.0000 ( 20170 PWs)   bands (ev):

   -18.2852 -14.7717 -10.4378 -10.0088  -8.7419  -8.0202  -7.3899

     highest occupied level (ev):    -7.3899

!    total energy              =     -29.89004322 Ry
     Harris-Foulkes estimate   =     -29.89004332 Ry
     estimated scf accuracy    <       0.00000020 Ry

     The total energy is the sum of the following terms:

     one-electron contribution =     -88.75391257 Ry
     hartree contribution      =      45.99366488 Ry
     xc contribution           =     -11.30537496 Ry
     ewald contribution        =      24.17557942 Ry

     convergence has been achieved in  11 iterations

     Forces acting on atoms (Ry/au):

     atom    1 type  1   force =    -0.03118966    0.02844953    0.01777230
     atom    2 type  1   force =     0.03233599   -0.00068710    0.00781011
     atom    3 type  2   force =     0.00740280   -0.00844445    0.00823987
     atom    4 type  2   force =    -0.01908253    0.00085720    0.00610397
     atom    5 type  2   force =     0.02030617   -0.02075283   -0.03108067
     atom    6 type  2   force =    -0.01539096    0.01300144    0.00514165
     atom    7 type  2   force =     0.00981150   -0.02775581    0.00924469
     atom    8 type  2   force =    -0.00419330    0.01533202   -0.02323191

     Total force =     0.088245     Total SCF correction =     0.000625


     entering subroutine stress ...

          total   stress  (Ry/bohr**3)                   (kbar)     P=   -2.01
  -0.00000949   0.00000619  -0.00001428         -1.40      0.91     -2.10
   0.00000619  -0.00001711   0.00001298          0.91     -2.52      1.91
  -0.00001428   0.00001298  -0.00001444         -2.10      1.91     -2.12


     init_run     :      2.00s CPU      2.08s WALL (       1 calls)
     electrons    :     23.62s CPU     23.96s WALL (       1 calls)
     forces       :      1.00s CPU      1.01s WALL (       1 calls)
     stress       :      1.18s CPU      1.22s WALL (       1 calls)

     Called by init_run:
     wfcinit      :      0.27s CPU      0.29s WALL (       1 calls)
     potinit      :      1.38s CPU      1.42s WALL (       1 calls)

     Called by electrons:
     c_bands      :      7.66s CPU      7.70s WALL (      11 calls)
     sum_band     :      2.17s CPU      2.18s WALL (      11 calls)
     v_of_rho     :     13.66s CPU     13.92s WALL (      12 calls)
     mix_rho      :      1.17s CPU      1.22s WALL (      11 calls)

     Called by c_bands:
     init_us_2    :      0.31s CPU      0.32s WALL (      23 calls)
     regterg      :      7.09s CPU      7.13s WALL (      11 calls)

     Called by *egterg:
     h_psi        :      6.91s CPU      6.94s WALL (      39 calls)
     g_psi        :      0.08s CPU      0.08s WALL (      27 calls)
     rdiaghg      :      0.01s CPU      0.01s WALL (      38 calls)

     Called by h_psi:
     add_vuspsi   :      0.10s CPU      0.10s WALL (      39 calls)

     General routines
     calbec       :      0.13s CPU      0.13s WALL (      44 calls)
     fft          :      3.82s CPU      3.93s WALL (     139 calls)
     fftw         :      6.16s CPU      6.19s WALL (     332 calls)

     Parallel routines
     fft_scatter  :      2.55s CPU      2.61s WALL (     471 calls)

     PWSCF        :    27.84s CPU        28.32s WALL


   This run was terminated on:  16:12: 7   4Jul2020            

=------------------------------------------------------------------------------=
   JOB DONE.
=------------------------------------------------------------------------------=
