
     Program PWSCF v.5.1.1 starts on  4Jul2020 at 17:32:31 

     This program is part of the open-source Quantum ESPRESSO suite
     for quantum simulation of materials; please cite
         "P. Giannozzi et al., J. Phys.:Condens. Matter 21 395502 (2009);
          URL http://www.quantum-espresso.org", 
     in publications or presentations arising from this work. More details at
     http://www.quantum-espresso.org/quote

     Parallel version (MPI), running on     1 processors
     Waiting for input...
     Reading input from standard input
Warning: card &IONS ignored
Warning: card / ignored
Warning: card &CELL ignored
Warning: card / ignored

     Current dimensions of program PWSCF are:
     Max number of different atomic species (ntypx) = 10
     Max number of k-points (npk) =  40000
     Max angular momentum in pseudopotentials (lmaxx) =  3

     gamma-point specific algorithms are used

     Subspace diagonalization in iterative solution of the eigenvalue problem:
     a serial algorithm will be used


     G-vector sticks info
     --------------------
     sticks:   dense  smooth     PW     G-vecs:    dense   smooth      PW
     Sum        5689    5689   1433               322453   322453   40339
     Tot        2845    2845    717



     bravais-lattice index     =            1
     lattice parameter (alat)  =      18.8973  a.u.
     unit-cell volume          =    6748.3346 (a.u.)^3
     number of atoms/cell      =            8
     number of atomic types    =            2
     number of electrons       =        14.00
     number of Kohn-Sham states=            7
     kinetic-energy cutoff     =      50.0000  Ry
     charge density cutoff     =     200.0000  Ry
     convergence threshold     =      1.0E-06
     mixing beta               =       0.2000
     number of iterations used =            8  plain     mixing
     Exchange-correlation      = PBE ( 1  4  3  4 0 0)

     celldm(1)=  18.897261  celldm(2)=   0.000000  celldm(3)=   0.000000
     celldm(4)=   0.000000  celldm(5)=   0.000000  celldm(6)=   0.000000

     crystal axes: (cart. coord. in units of alat)
               a(1) = (   1.000000   0.000000   0.000000 )  
               a(2) = (   0.000000   1.000000   0.000000 )  
               a(3) = (   0.000000   0.000000   1.000000 )  

     reciprocal axes: (cart. coord. in units 2 pi/alat)
               b(1) = (  1.000000  0.000000  0.000000 )  
               b(2) = (  0.000000  1.000000  0.000000 )  
               b(3) = (  0.000000  0.000000  1.000000 )  


     PseudoPot. # 1 for C  read from file:
     ../../pseudo-potentials/C_ONCV_PBE-1.0.upf
     MD5 check sum: 40f8c33130f0afa4272e9dcc1c4fb0df
     Pseudo is Norm-conserving, Zval =  4.0
     Generated using ONCVPSP code by D. R. Hamann
     Using radial grid of  602 points,  4 beta functions with: 
                l(1) =   0
                l(2) =   0
                l(3) =   1
                l(4) =   1

     PseudoPot. # 2 for H  read from file:
     ../../pseudo-potentials/H_ONCV_PBE-1.0.upf
     MD5 check sum: 10f92816c437af099bca1a183851adc8
     Pseudo is Norm-conserving, Zval =  1.0
     Generated using ONCVPSP code by D. R. Hamann
     Using radial grid of  602 points,  2 beta functions with: 
                l(1) =   0
                l(2) =   0

     atomic species   valence    mass     pseudopotential
        C              4.00     1.00000     C ( 1.00)
        H              1.00     1.00000     H ( 1.00)

     No symmetry found



   Cartesian axes

     site n.     atom                  positions (alat units)
         1           C   tau(   1) = (   1.7448400   2.1842280   1.9880720  )
         2           C   tau(   2) = (   1.8489160   2.2976320   2.0137520  )
         3           H   tau(   3) = (   1.6773440   2.1571840   2.0745160  )
         4           H   tau(   4) = (   1.8107040   2.0898160   1.9710840  )
         5           H   tau(   5) = (   1.6801600   2.2028720   1.9021960  )
         6           H   tau(   6) = (   1.8232560   2.3624080   2.0960120  )
         7           H   tau(   7) = (   1.8414920   2.3614400   1.9239080  )
         8           H   tau(   8) = (   1.9545760   2.2627840   2.0105360  )

     number of k points=     1
                       cart. coord. in units 2pi/alat
        k(    1) = (   0.0000000   0.0000000   0.0000000), wk =   2.0000000

     Dense  grid:   161227 G-vectors     FFT dimensions: (  90,  90,  90)

     Largest allocated arrays     est. size (Mb)     dimensions
        Kohn-Sham Wavefunctions         2.15 Mb     (   20170,    7)
        NL pseudopotentials             8.62 Mb     (   20170,   28)
        Each V/rho on FFT grid         11.12 Mb     (  729000)
        Each G-vector array             1.23 Mb     (  161227)
        G-vector shells                 0.01 Mb     (    1510)
     Largest temporary arrays     est. size (Mb)     dimensions
        Auxiliary wavefunctions         4.31 Mb     (   20170,   28)
        Each subspace H/S matrix        0.01 Mb     (      28,   28)
        Each <psi_i|beta_j> matrix      0.00 Mb     (      28,    7)
        Arrays for rho mixing          88.99 Mb     (  729000,    8)

     Initial potential from superposition of free atoms
     Check: negative starting charge=   -0.000632

     starting charge   13.97327, renormalised to   14.00000

     negative rho (up, down):  6.336E-04 0.000E+00
     Starting wfc are random

     total cpu time spent up to now is        1.9 secs

     per-process dynamical memory:   141.6 Mb

     Self-consistent Calculation

     iteration #  1     ecut=    50.00 Ry     beta=0.20
     Davidson diagonalization with overlap
     ethr =  1.00E-02,  avg # of iterations =  9.0

     negative rho (up, down):  4.232E-04 0.000E+00

     total cpu time spent up to now is        5.8 secs

     total energy              =     -29.99533125 Ry
     Harris-Foulkes estimate   =     -30.21961024 Ry
     estimated scf accuracy    <       0.87641510 Ry

     iteration #  2     ecut=    50.00 Ry     beta=0.20
     Davidson diagonalization with overlap
     ethr =  6.26E-03,  avg # of iterations =  1.0

     negative rho (up, down):  1.173E-04 0.000E+00

     total cpu time spent up to now is        7.7 secs

     total energy              =     -29.78907355 Ry
     Harris-Foulkes estimate   =     -30.01693059 Ry
     estimated scf accuracy    <       0.39457336 Ry

     iteration #  3     ecut=    50.00 Ry     beta=0.20
     Davidson diagonalization with overlap
     ethr =  2.82E-03,  avg # of iterations =  2.0

     negative rho (up, down):  1.528E-04 0.000E+00

     total cpu time spent up to now is        9.7 secs

     total energy              =     -29.96116232 Ry
     Harris-Foulkes estimate   =     -29.91131665 Ry
     estimated scf accuracy    <       0.08846097 Ry

     iteration #  4     ecut=    50.00 Ry     beta=0.20
     Davidson diagonalization with overlap
     ethr =  6.32E-04,  avg # of iterations =  2.0

     negative rho (up, down):  1.478E-05 0.000E+00

     total cpu time spent up to now is       11.8 secs

     total energy              =     -29.84635517 Ry
     Harris-Foulkes estimate   =     -29.97687061 Ry
     estimated scf accuracy    <       0.30644318 Ry

     iteration #  5     ecut=    50.00 Ry     beta=0.20
     Davidson diagonalization with overlap
     ethr =  6.32E-04,  avg # of iterations =  2.0

     negative rho (up, down):  1.355E-06 0.000E+00

     total cpu time spent up to now is       13.9 secs

     total energy              =     -29.88214347 Ry
     Harris-Foulkes estimate   =     -29.88504014 Ry
     estimated scf accuracy    <       0.01001043 Ry

     iteration #  6     ecut=    50.00 Ry     beta=0.20
     Davidson diagonalization with overlap
     ethr =  7.15E-05,  avg # of iterations =  1.0

     negative rho (up, down):  8.618E-07 0.000E+00

     total cpu time spent up to now is       15.9 secs

     total energy              =     -29.88125308 Ry
     Harris-Foulkes estimate   =     -29.88288826 Ry
     estimated scf accuracy    <       0.00324674 Ry

     iteration #  7     ecut=    50.00 Ry     beta=0.20
     Davidson diagonalization with overlap
     ethr =  2.32E-05,  avg # of iterations =  3.0

     negative rho (up, down):  3.707E-08 0.000E+00

     total cpu time spent up to now is       18.3 secs

     total energy              =     -29.88244593 Ry
     Harris-Foulkes estimate   =     -29.88259535 Ry
     estimated scf accuracy    <       0.00034361 Ry

     iteration #  8     ecut=    50.00 Ry     beta=0.20
     Davidson diagonalization with overlap
     ethr =  2.45E-06,  avg # of iterations =  2.0

     total cpu time spent up to now is       20.5 secs

     total energy              =     -29.88251514 Ry
     Harris-Foulkes estimate   =     -29.88251066 Ry
     estimated scf accuracy    <       0.00001272 Ry

     iteration #  9     ecut=    50.00 Ry     beta=0.20
     Davidson diagonalization with overlap
     ethr =  9.09E-08,  avg # of iterations =  2.0

     total cpu time spent up to now is       22.8 secs

     total energy              =     -29.88250979 Ry
     Harris-Foulkes estimate   =     -29.88251725 Ry
     estimated scf accuracy    <       0.00002154 Ry

     iteration # 10     ecut=    50.00 Ry     beta=0.20
     Davidson diagonalization with overlap
     ethr =  9.09E-08,  avg # of iterations =  2.0

     total cpu time spent up to now is       24.9 secs

     total energy              =     -29.88251148 Ry
     Harris-Foulkes estimate   =     -29.88251212 Ry
     estimated scf accuracy    <       0.00000279 Ry

     iteration # 11     ecut=    50.00 Ry     beta=0.20
     Davidson diagonalization with overlap
     ethr =  1.99E-08,  avg # of iterations =  1.0

     total cpu time spent up to now is       26.7 secs

     total energy              =     -29.88251134 Ry
     Harris-Foulkes estimate   =     -29.88251160 Ry
     estimated scf accuracy    <       0.00000113 Ry

     iteration # 12     ecut=    50.00 Ry     beta=0.20
     Davidson diagonalization with overlap
     ethr =  8.07E-09,  avg # of iterations =  2.0

     total cpu time spent up to now is       28.3 secs

     End of self-consistent calculation

          k = 0.0000 0.0000 0.0000 ( 20170 PWs)   bands (ev):

   -18.0852 -14.6651 -10.2825 -10.0855  -8.5983  -7.7537  -7.5593

     highest occupied level (ev):    -7.5593

!    total energy              =     -29.88251138 Ry
     Harris-Foulkes estimate   =     -29.88251148 Ry
     estimated scf accuracy    <       0.00000017 Ry

     The total energy is the sum of the following terms:

     one-electron contribution =     -87.29554505 Ry
     hartree contribution      =      45.25408856 Ry
     xc contribution           =     -11.21926443 Ry
     ewald contribution        =      23.37820955 Ry

     convergence has been achieved in  12 iterations

     Forces acting on atoms (Ry/au):

     atom    1 type  1   force =     0.05461809   -0.06666405    0.04038969
     atom    2 type  1   force =    -0.02193556   -0.00572838   -0.06608035
     atom    3 type  2   force =     0.02581690    0.01687237   -0.02013328
     atom    4 type  2   force =    -0.05412782    0.04103026   -0.00344647
     atom    5 type  2   force =     0.00338609   -0.00132310   -0.00630966
     atom    6 type  2   force =     0.00840307    0.00477688    0.02567022
     atom    7 type  2   force =     0.00660700    0.00764308    0.00623102
     atom    8 type  2   force =    -0.02276777    0.00339294    0.02367881

     Total force =     0.148181     Total SCF correction =     0.000361


     entering subroutine stress ...

          total   stress  (Ry/bohr**3)                   (kbar)     P=   -4.27
  -0.00004762   0.00000916   0.00000666         -7.01      1.35      0.98
   0.00000916  -0.00002279   0.00000267          1.35     -3.35      0.39
   0.00000666   0.00000267  -0.00001658          0.98      0.39     -2.44


     init_run     :      1.80s CPU      1.87s WALL (       1 calls)
     electrons    :     26.06s CPU     26.37s WALL (       1 calls)
     forces       :      0.92s CPU      0.93s WALL (       1 calls)
     stress       :      1.13s CPU      1.17s WALL (       1 calls)

     Called by init_run:
     wfcinit      :      0.22s CPU      0.23s WALL (       1 calls)
     potinit      :      1.25s CPU      1.29s WALL (       1 calls)

     Called by electrons:
     c_bands      :      8.76s CPU      8.81s WALL (      12 calls)
     sum_band     :      2.20s CPU      2.21s WALL (      12 calls)
     v_of_rho     :     14.71s CPU     14.92s WALL (      13 calls)
     mix_rho      :      1.23s CPU      1.28s WALL (      12 calls)

     Called by c_bands:
     init_us_2    :      0.33s CPU      0.34s WALL (      25 calls)
     regterg      :      8.15s CPU      8.20s WALL (      12 calls)

     Called by *egterg:
     h_psi        :      7.83s CPU      7.87s WALL (      42 calls)
     g_psi        :      0.08s CPU      0.08s WALL (      29 calls)
     rdiaghg      :      0.01s CPU      0.01s WALL (      41 calls)

     Called by h_psi:
     add_vuspsi   :      0.12s CPU      0.12s WALL (      42 calls)

     General routines
     calbec       :      0.15s CPU      0.15s WALL (      47 calls)
     fft          :      4.24s CPU      4.34s WALL (     150 calls)
     fftw         :      6.67s CPU      6.70s WALL (     352 calls)

     Parallel routines
     fft_scatter  :      2.91s CPU      2.96s WALL (     502 calls)

     PWSCF        :    29.95s CPU        30.38s WALL


   This run was terminated on:  17:33: 1   4Jul2020            

=------------------------------------------------------------------------------=
   JOB DONE.
=------------------------------------------------------------------------------=
