
     Program PWSCF v.5.1.1 starts on  4Jul2020 at 16:12:16 

     This program is part of the open-source Quantum ESPRESSO suite
     for quantum simulation of materials; please cite
         "P. Giannozzi et al., J. Phys.:Condens. Matter 21 395502 (2009);
          URL http://www.quantum-espresso.org", 
     in publications or presentations arising from this work. More details at
     http://www.quantum-espresso.org/quote

     Parallel version (MPI), running on     1 processors
     Waiting for input...
     Reading input from standard input
Warning: card &IONS ignored
Warning: card / ignored
Warning: card &CELL ignored
Warning: card / ignored

     Current dimensions of program PWSCF are:
     Max number of different atomic species (ntypx) = 10
     Max number of k-points (npk) =  40000
     Max angular momentum in pseudopotentials (lmaxx) =  3

     gamma-point specific algorithms are used

     Subspace diagonalization in iterative solution of the eigenvalue problem:
     a serial algorithm will be used


     G-vector sticks info
     --------------------
     sticks:   dense  smooth     PW     G-vecs:    dense   smooth      PW
     Sum        5689    5689   1433               322453   322453   40339
     Tot        2845    2845    717



     bravais-lattice index     =            1
     lattice parameter (alat)  =      18.8973  a.u.
     unit-cell volume          =    6748.3346 (a.u.)^3
     number of atoms/cell      =            8
     number of atomic types    =            2
     number of electrons       =        14.00
     number of Kohn-Sham states=            7
     kinetic-energy cutoff     =      50.0000  Ry
     charge density cutoff     =     200.0000  Ry
     convergence threshold     =      1.0E-06
     mixing beta               =       0.2000
     number of iterations used =            8  plain     mixing
     Exchange-correlation      = PBE ( 1  4  3  4 0 0)

     celldm(1)=  18.897261  celldm(2)=   0.000000  celldm(3)=   0.000000
     celldm(4)=   0.000000  celldm(5)=   0.000000  celldm(6)=   0.000000

     crystal axes: (cart. coord. in units of alat)
               a(1) = (   1.000000   0.000000   0.000000 )  
               a(2) = (   0.000000   1.000000   0.000000 )  
               a(3) = (   0.000000   0.000000   1.000000 )  

     reciprocal axes: (cart. coord. in units 2 pi/alat)
               b(1) = (  1.000000  0.000000  0.000000 )  
               b(2) = (  0.000000  1.000000  0.000000 )  
               b(3) = (  0.000000  0.000000  1.000000 )  


     PseudoPot. # 1 for C  read from file:
     ../../pseudo-potentials/C_ONCV_PBE-1.0.upf
     MD5 check sum: 40f8c33130f0afa4272e9dcc1c4fb0df
     Pseudo is Norm-conserving, Zval =  4.0
     Generated using ONCVPSP code by D. R. Hamann
     Using radial grid of  602 points,  4 beta functions with: 
                l(1) =   0
                l(2) =   0
                l(3) =   1
                l(4) =   1

     PseudoPot. # 2 for H  read from file:
     ../../pseudo-potentials/H_ONCV_PBE-1.0.upf
     MD5 check sum: 10f92816c437af099bca1a183851adc8
     Pseudo is Norm-conserving, Zval =  1.0
     Generated using ONCVPSP code by D. R. Hamann
     Using radial grid of  602 points,  2 beta functions with: 
                l(1) =   0
                l(2) =   0

     atomic species   valence    mass     pseudopotential
        C              4.00     1.00000     C ( 1.00)
        H              1.00     1.00000     H ( 1.00)

     No symmetry found



   Cartesian axes

     site n.     atom                  positions (alat units)
         1           C   tau(   1) = (   1.7485960   2.1838240   2.0053920  )
         2           C   tau(   2) = (   1.8476280   2.2957800   1.9943800  )
         3           H   tau(   3) = (   1.7328120   2.1180400   1.9107080  )
         4           H   tau(   4) = (   1.6543720   2.2371120   2.0238240  )
         5           H   tau(   5) = (   1.7622880   2.1158760   2.0862560  )
         6           H   tau(   6) = (   1.9204440   2.2986360   1.9133400  )
         7           H   tau(   7) = (   1.9036880   2.3046800   2.0876440  )
         8           H   tau(   8) = (   1.7845760   2.3889920   1.9809320  )

     number of k points=     1
                       cart. coord. in units 2pi/alat
        k(    1) = (   0.0000000   0.0000000   0.0000000), wk =   2.0000000

     Dense  grid:   161227 G-vectors     FFT dimensions: (  90,  90,  90)

     Largest allocated arrays     est. size (Mb)     dimensions
        Kohn-Sham Wavefunctions         2.15 Mb     (   20170,    7)
        NL pseudopotentials             8.62 Mb     (   20170,   28)
        Each V/rho on FFT grid         11.12 Mb     (  729000)
        Each G-vector array             1.23 Mb     (  161227)
        G-vector shells                 0.01 Mb     (    1510)
     Largest temporary arrays     est. size (Mb)     dimensions
        Auxiliary wavefunctions         4.31 Mb     (   20170,   28)
        Each subspace H/S matrix        0.01 Mb     (      28,   28)
        Each <psi_i|beta_j> matrix      0.00 Mb     (      28,    7)
        Arrays for rho mixing          88.99 Mb     (  729000,    8)

     Initial potential from superposition of free atoms
     Check: negative starting charge=   -0.000644

     starting charge   13.97327, renormalised to   14.00000

     negative rho (up, down):  6.451E-04 0.000E+00
     Starting wfc are random

     total cpu time spent up to now is        2.0 secs

     per-process dynamical memory:   141.6 Mb

     Self-consistent Calculation

     iteration #  1     ecut=    50.00 Ry     beta=0.20
     Davidson diagonalization with overlap
     ethr =  1.00E-02,  avg # of iterations =  9.0

     negative rho (up, down):  4.573E-04 0.000E+00

     total cpu time spent up to now is        5.4 secs

     total energy              =     -29.99524595 Ry
     Harris-Foulkes estimate   =     -30.24247284 Ry
     estimated scf accuracy    <       0.95457813 Ry

     iteration #  2     ecut=    50.00 Ry     beta=0.20
     Davidson diagonalization with overlap
     ethr =  6.82E-03,  avg # of iterations =  1.0

     negative rho (up, down):  1.439E-04 0.000E+00

     total cpu time spent up to now is        7.2 secs

     total energy              =     -29.78496651 Ry
     Harris-Foulkes estimate   =     -30.02005541 Ry
     estimated scf accuracy    <       0.41286081 Ry

     iteration #  3     ecut=    50.00 Ry     beta=0.20
     Davidson diagonalization with overlap
     ethr =  2.95E-03,  avg # of iterations =  2.0

     negative rho (up, down):  1.966E-04 0.000E+00

     total cpu time spent up to now is        9.3 secs

     total energy              =     -29.95924109 Ry
     Harris-Foulkes estimate   =     -29.90871046 Ry
     estimated scf accuracy    <       0.08540839 Ry

     iteration #  4     ecut=    50.00 Ry     beta=0.20
     Davidson diagonalization with overlap
     ethr =  6.10E-04,  avg # of iterations =  2.0

     negative rho (up, down):  1.924E-05 0.000E+00

     total cpu time spent up to now is       11.3 secs

     total energy              =     -29.84173684 Ry
     Harris-Foulkes estimate   =     -29.97652424 Ry
     estimated scf accuracy    <       0.31110873 Ry

     iteration #  5     ecut=    50.00 Ry     beta=0.20
     Davidson diagonalization with overlap
     ethr =  6.10E-04,  avg # of iterations =  2.0

     negative rho (up, down):  3.226E-06 0.000E+00

     total cpu time spent up to now is       13.4 secs

     total energy              =     -29.88038499 Ry
     Harris-Foulkes estimate   =     -29.88272855 Ry
     estimated scf accuracy    <       0.00853914 Ry

     iteration #  6     ecut=    50.00 Ry     beta=0.20
     Davidson diagonalization with overlap
     ethr =  6.10E-05,  avg # of iterations =  1.0

     negative rho (up, down):  1.635E-06 0.000E+00

     total cpu time spent up to now is       15.2 secs

     total energy              =     -29.87956098 Ry
     Harris-Foulkes estimate   =     -29.88099758 Ry
     estimated scf accuracy    <       0.00291760 Ry

     iteration #  7     ecut=    50.00 Ry     beta=0.20
     Davidson diagonalization with overlap
     ethr =  2.08E-05,  avg # of iterations =  2.0

     negative rho (up, down):  3.591E-08 0.000E+00

     total cpu time spent up to now is       17.3 secs

     total energy              =     -29.88052093 Ry
     Harris-Foulkes estimate   =     -29.88076447 Ry
     estimated scf accuracy    <       0.00053469 Ry

     iteration #  8     ecut=    50.00 Ry     beta=0.20
     Davidson diagonalization with overlap
     ethr =  3.82E-06,  avg # of iterations =  2.0

     negative rho (up, down):  1.913E-08 0.000E+00

     total cpu time spent up to now is       19.3 secs

     total energy              =     -29.88062142 Ry
     Harris-Foulkes estimate   =     -29.88062143 Ry
     estimated scf accuracy    <       0.00001424 Ry

     iteration #  9     ecut=    50.00 Ry     beta=0.20
     Davidson diagonalization with overlap
     ethr =  1.02E-07,  avg # of iterations =  2.0

     total cpu time spent up to now is       21.4 secs

     total energy              =     -29.88062593 Ry
     Harris-Foulkes estimate   =     -29.88062538 Ry
     estimated scf accuracy    <       0.00001121 Ry

     iteration # 10     ecut=    50.00 Ry     beta=0.20
     Davidson diagonalization with overlap
     ethr =  8.01E-08,  avg # of iterations =  1.0

     total cpu time spent up to now is       23.2 secs

     total energy              =     -29.88062169 Ry
     Harris-Foulkes estimate   =     -29.88062641 Ry
     estimated scf accuracy    <       0.00001036 Ry

     iteration # 11     ecut=    50.00 Ry     beta=0.20
     Davidson diagonalization with overlap
     ethr =  7.40E-08,  avg # of iterations =  2.0

     total cpu time spent up to now is       25.0 secs

     End of self-consistent calculation

          k = 0.0000 0.0000 0.0000 ( 20170 PWs)   bands (ev):

   -18.4174 -14.6523 -10.4826 -10.1541  -8.7815  -7.7201  -7.4602

     highest occupied level (ev):    -7.4602

!    total energy              =     -29.88062311 Ry
     Harris-Foulkes estimate   =     -29.88062322 Ry
     estimated scf accuracy    <       0.00000018 Ry

     The total energy is the sum of the following terms:

     one-electron contribution =     -88.97986297 Ry
     hartree contribution      =      46.09924598 Ry
     xc contribution           =     -11.29396231 Ry
     ewald contribution        =      24.29395619 Ry

     convergence has been achieved in  11 iterations

     Forces acting on atoms (Ry/au):

     atom    1 type  1   force =    -0.05313240   -0.02852580   -0.08274914
     atom    2 type  1   force =    -0.00699008    0.06235880    0.00088088
     atom    3 type  2   force =     0.01210821    0.04218532    0.04738930
     atom    4 type  2   force =    -0.01429300   -0.02534717    0.00042238
     atom    5 type  2   force =     0.01630978   -0.02429013    0.03112714
     atom    6 type  2   force =     0.00300527   -0.01865536   -0.00971434
     atom    7 type  2   force =     0.00476480    0.01047746    0.00545750
     atom    8 type  2   force =     0.03822743   -0.01820312    0.00718628

     Total force =     0.154027     Total SCF correction =     0.000558


     entering subroutine stress ...

          total   stress  (Ry/bohr**3)                   (kbar)     P=   -2.06
  -0.00000675   0.00001607  -0.00000248         -0.99      2.36     -0.36
   0.00001607  -0.00001615  -0.00001173          2.36     -2.38     -1.72
  -0.00000248  -0.00001173  -0.00001919         -0.36     -1.72     -2.82


     init_run     :      1.86s CPU      1.98s WALL (       1 calls)
     electrons    :     22.42s CPU     22.96s WALL (       1 calls)
     forces       :      0.99s CPU      1.00s WALL (       1 calls)
     stress       :      1.19s CPU      1.23s WALL (       1 calls)

     Called by init_run:
     wfcinit      :      0.22s CPU      0.24s WALL (       1 calls)
     potinit      :      1.29s CPU      1.37s WALL (       1 calls)

     Called by electrons:
     c_bands      :      7.08s CPU      7.15s WALL (      11 calls)
     sum_band     :      2.07s CPU      2.09s WALL (      11 calls)
     v_of_rho     :     13.10s CPU     13.48s WALL (      12 calls)
     mix_rho      :      1.14s CPU      1.22s WALL (      11 calls)

     Called by c_bands:
     init_us_2    :      0.30s CPU      0.32s WALL (      23 calls)
     regterg      :      6.52s CPU      6.58s WALL (      11 calls)

     Called by *egterg:
     h_psi        :      6.32s CPU      6.37s WALL (      38 calls)
     g_psi        :      0.08s CPU      0.08s WALL (      26 calls)
     rdiaghg      :      0.01s CPU      0.01s WALL (      37 calls)

     Called by h_psi:
     add_vuspsi   :      0.09s CPU      0.09s WALL (      38 calls)

     General routines
     calbec       :      0.12s CPU      0.12s WALL (      43 calls)
     fft          :      3.46s CPU      3.61s WALL (     139 calls)
     fftw         :      5.73s CPU      5.76s WALL (     328 calls)

     Parallel routines
     fft_scatter  :      2.12s CPU      2.19s WALL (     467 calls)

     PWSCF        :    26.49s CPU        27.22s WALL


   This run was terminated on:  16:12:43   4Jul2020            

=------------------------------------------------------------------------------=
   JOB DONE.
=------------------------------------------------------------------------------=
