
     Program PWSCF v.5.1.1 starts on  4Jul2020 at 17:31:53 

     This program is part of the open-source Quantum ESPRESSO suite
     for quantum simulation of materials; please cite
         "P. Giannozzi et al., J. Phys.:Condens. Matter 21 395502 (2009);
          URL http://www.quantum-espresso.org", 
     in publications or presentations arising from this work. More details at
     http://www.quantum-espresso.org/quote

     Parallel version (MPI), running on     1 processors
     Waiting for input...
     Reading input from standard input
Warning: card &IONS ignored
Warning: card / ignored
Warning: card &CELL ignored
Warning: card / ignored

     Current dimensions of program PWSCF are:
     Max number of different atomic species (ntypx) = 10
     Max number of k-points (npk) =  40000
     Max angular momentum in pseudopotentials (lmaxx) =  3

     gamma-point specific algorithms are used

     Subspace diagonalization in iterative solution of the eigenvalue problem:
     a serial algorithm will be used


     G-vector sticks info
     --------------------
     sticks:   dense  smooth     PW     G-vecs:    dense   smooth      PW
     Sum        5689    5689   1433               322453   322453   40339
     Tot        2845    2845    717



     bravais-lattice index     =            1
     lattice parameter (alat)  =      18.8973  a.u.
     unit-cell volume          =    6748.3346 (a.u.)^3
     number of atoms/cell      =            8
     number of atomic types    =            2
     number of electrons       =        14.00
     number of Kohn-Sham states=            7
     kinetic-energy cutoff     =      50.0000  Ry
     charge density cutoff     =     200.0000  Ry
     convergence threshold     =      1.0E-06
     mixing beta               =       0.2000
     number of iterations used =            8  plain     mixing
     Exchange-correlation      = PBE ( 1  4  3  4 0 0)

     celldm(1)=  18.897261  celldm(2)=   0.000000  celldm(3)=   0.000000
     celldm(4)=   0.000000  celldm(5)=   0.000000  celldm(6)=   0.000000

     crystal axes: (cart. coord. in units of alat)
               a(1) = (   1.000000   0.000000   0.000000 )  
               a(2) = (   0.000000   1.000000   0.000000 )  
               a(3) = (   0.000000   0.000000   1.000000 )  

     reciprocal axes: (cart. coord. in units 2 pi/alat)
               b(1) = (  1.000000  0.000000  0.000000 )  
               b(2) = (  0.000000  1.000000  0.000000 )  
               b(3) = (  0.000000  0.000000  1.000000 )  


     PseudoPot. # 1 for C  read from file:
     ../../pseudo-potentials/C_ONCV_PBE-1.0.upf
     MD5 check sum: 40f8c33130f0afa4272e9dcc1c4fb0df
     Pseudo is Norm-conserving, Zval =  4.0
     Generated using ONCVPSP code by D. R. Hamann
     Using radial grid of  602 points,  4 beta functions with: 
                l(1) =   0
                l(2) =   0
                l(3) =   1
                l(4) =   1

     PseudoPot. # 2 for H  read from file:
     ../../pseudo-potentials/H_ONCV_PBE-1.0.upf
     MD5 check sum: 10f92816c437af099bca1a183851adc8
     Pseudo is Norm-conserving, Zval =  1.0
     Generated using ONCVPSP code by D. R. Hamann
     Using radial grid of  602 points,  2 beta functions with: 
                l(1) =   0
                l(2) =   0

     atomic species   valence    mass     pseudopotential
        C              4.00     1.00000     C ( 1.00)
        H              1.00     1.00000     H ( 1.00)

     No symmetry found



   Cartesian axes

     site n.     atom                  positions (alat units)
         1           C   tau(   1) = (   1.7500640   2.1826240   1.9963600  )
         2           C   tau(   2) = (   1.8460600   2.2967280   2.0028160  )
         3           H   tau(   3) = (   1.6445400   2.2153600   1.9631320  )
         4           H   tau(   4) = (   1.7308720   2.1541680   2.1067840  )
         5           H   tau(   5) = (   1.7792520   2.1116000   1.9170640  )
         6           H   tau(   6) = (   1.8007760   2.3859360   2.0457440  )
         7           H   tau(   7) = (   1.8715840   2.3262000   1.8990720  )
         8           H   tau(   8) = (   1.9323280   2.2731040   2.0779960  )

     number of k points=     1
                       cart. coord. in units 2pi/alat
        k(    1) = (   0.0000000   0.0000000   0.0000000), wk =   2.0000000

     Dense  grid:   161227 G-vectors     FFT dimensions: (  90,  90,  90)

     Largest allocated arrays     est. size (Mb)     dimensions
        Kohn-Sham Wavefunctions         2.15 Mb     (   20170,    7)
        NL pseudopotentials             8.62 Mb     (   20170,   28)
        Each V/rho on FFT grid         11.12 Mb     (  729000)
        Each G-vector array             1.23 Mb     (  161227)
        G-vector shells                 0.01 Mb     (    1510)
     Largest temporary arrays     est. size (Mb)     dimensions
        Auxiliary wavefunctions         4.31 Mb     (   20170,   28)
        Each subspace H/S matrix        0.01 Mb     (      28,   28)
        Each <psi_i|beta_j> matrix      0.00 Mb     (      28,    7)
        Arrays for rho mixing          88.99 Mb     (  729000,    8)

     Initial potential from superposition of free atoms
     Check: negative starting charge=   -0.000636

     starting charge   13.97327, renormalised to   14.00000

     negative rho (up, down):  6.377E-04 0.000E+00
     Starting wfc are random

     total cpu time spent up to now is        1.8 secs

     per-process dynamical memory:   141.6 Mb

     Self-consistent Calculation

     iteration #  1     ecut=    50.00 Ry     beta=0.20
     Davidson diagonalization with overlap
     ethr =  1.00E-02,  avg # of iterations =  9.0

     negative rho (up, down):  3.819E-04 0.000E+00

     total cpu time spent up to now is        5.6 secs

     total energy              =     -29.97489552 Ry
     Harris-Foulkes estimate   =     -30.19977468 Ry
     estimated scf accuracy    <       0.87031249 Ry

     iteration #  2     ecut=    50.00 Ry     beta=0.20
     Davidson diagonalization with overlap
     ethr =  6.22E-03,  avg # of iterations =  1.0

     negative rho (up, down):  9.412E-05 0.000E+00

     total cpu time spent up to now is        7.4 secs

     total energy              =     -29.76972847 Ry
     Harris-Foulkes estimate   =     -29.99892027 Ry
     estimated scf accuracy    <       0.39260225 Ry

     iteration #  3     ecut=    50.00 Ry     beta=0.20
     Davidson diagonalization with overlap
     ethr =  2.80E-03,  avg # of iterations =  2.0

     negative rho (up, down):  1.103E-04 0.000E+00

     total cpu time spent up to now is        9.5 secs

     total energy              =     -29.95553668 Ry
     Harris-Foulkes estimate   =     -29.90330105 Ry
     estimated scf accuracy    <       0.10362485 Ry

     iteration #  4     ecut=    50.00 Ry     beta=0.20
     Davidson diagonalization with overlap
     ethr =  7.40E-04,  avg # of iterations =  2.0

     negative rho (up, down):  1.820E-05 0.000E+00

     total cpu time spent up to now is       11.7 secs

     total energy              =     -29.80291953 Ry
     Harris-Foulkes estimate   =     -29.97113168 Ry
     estimated scf accuracy    <       0.33021740 Ry

     iteration #  5     ecut=    50.00 Ry     beta=0.20
     Davidson diagonalization with overlap
     ethr =  7.40E-04,  avg # of iterations =  3.0

     negative rho (up, down):  6.100E-06 0.000E+00

     total cpu time spent up to now is       14.1 secs

     total energy              =     -29.86943238 Ry
     Harris-Foulkes estimate   =     -29.87087899 Ry
     estimated scf accuracy    <       0.00297048 Ry

     iteration #  6     ecut=    50.00 Ry     beta=0.20
     Davidson diagonalization with overlap
     ethr =  2.12E-05,  avg # of iterations =  2.0

     negative rho (up, down):  1.833E-06 0.000E+00

     total cpu time spent up to now is       16.3 secs

     total energy              =     -29.86999335 Ry
     Harris-Foulkes estimate   =     -29.87124200 Ry
     estimated scf accuracy    <       0.00291624 Ry

     iteration #  7     ecut=    50.00 Ry     beta=0.20
     Davidson diagonalization with overlap
     ethr =  2.08E-05,  avg # of iterations =  2.0

     negative rho (up, down):  3.735E-08 0.000E+00

     total cpu time spent up to now is       18.3 secs

     total energy              =     -29.87024786 Ry
     Harris-Foulkes estimate   =     -29.87036827 Ry
     estimated scf accuracy    <       0.00032972 Ry

     iteration #  8     ecut=    50.00 Ry     beta=0.20
     Davidson diagonalization with overlap
     ethr =  2.36E-06,  avg # of iterations =  2.0

     negative rho (up, down):  4.410E-08 0.000E+00

     total cpu time spent up to now is       20.2 secs

     total energy              =     -29.87029953 Ry
     Harris-Foulkes estimate   =     -29.87030020 Ry
     estimated scf accuracy    <       0.00002020 Ry

     iteration #  9     ecut=    50.00 Ry     beta=0.20
     Davidson diagonalization with overlap
     ethr =  1.44E-07,  avg # of iterations =  2.0

     total cpu time spent up to now is       22.1 secs

     total energy              =     -29.87029627 Ry
     Harris-Foulkes estimate   =     -29.87030176 Ry
     estimated scf accuracy    <       0.00001994 Ry

     iteration # 10     ecut=    50.00 Ry     beta=0.20
     Davidson diagonalization with overlap
     ethr =  1.42E-07,  avg # of iterations =  2.0

     total cpu time spent up to now is       24.1 secs

     total energy              =     -29.87029725 Ry
     Harris-Foulkes estimate   =     -29.87029916 Ry
     estimated scf accuracy    <       0.00000528 Ry

     iteration # 11     ecut=    50.00 Ry     beta=0.20
     Davidson diagonalization with overlap
     ethr =  3.77E-08,  avg # of iterations =  2.0

     total cpu time spent up to now is       25.8 secs

     End of self-consistent calculation

          k = 0.0000 0.0000 0.0000 ( 20170 PWs)   bands (ev):

   -18.3899 -14.3820 -10.7312  -9.9674  -8.6462  -7.8166  -7.1993

     highest occupied level (ev):    -7.1993

!    total energy              =     -29.87029777 Ry
     Harris-Foulkes estimate   =     -29.87029785 Ry
     estimated scf accuracy    <       0.00000057 Ry

     The total energy is the sum of the following terms:

     one-electron contribution =     -88.19167905 Ry
     hartree contribution      =      45.68480340 Ry
     xc contribution           =     -11.20514234 Ry
     ewald contribution        =      23.84172023 Ry

     convergence has been achieved in  11 iterations

     Forces acting on atoms (Ry/au):

     atom    1 type  1   force =    -0.09561254    0.01323310    0.03917872
     atom    2 type  1   force =     0.04378117    0.02328705    0.02229201
     atom    3 type  2   force =     0.04814820   -0.00379176    0.00912697
     atom    4 type  2   force =     0.01399192   -0.03040800   -0.06788196
     atom    5 type  2   force =     0.00306056   -0.02235314    0.03783812
     atom    6 type  2   force =    -0.01175037    0.00999427    0.00843005
     atom    7 type  2   force =     0.02997662   -0.00253791    0.01985949
     atom    8 type  2   force =    -0.03159556    0.01257639   -0.06884341

     Total force =     0.177193     Total SCF correction =     0.000674


     entering subroutine stress ...

          total   stress  (Ry/bohr**3)                   (kbar)     P=   -4.30
  -0.00002675   0.00001530  -0.00001710         -3.93      2.25     -2.51
   0.00001530   0.00000612   0.00000136          2.25      0.90      0.20
  -0.00001710   0.00000136  -0.00006711         -2.51      0.20     -9.87


     init_run     :      1.74s CPU      1.80s WALL (       1 calls)
     electrons    :     23.55s CPU     23.97s WALL (       1 calls)
     forces       :      0.96s CPU      0.97s WALL (       1 calls)
     stress       :      1.27s CPU      1.31s WALL (       1 calls)

     Called by init_run:
     wfcinit      :      0.20s CPU      0.21s WALL (       1 calls)
     potinit      :      1.20s CPU      1.24s WALL (       1 calls)

     Called by electrons:
     c_bands      :      7.88s CPU      7.98s WALL (      11 calls)
     sum_band     :      2.01s CPU      2.03s WALL (      11 calls)
     v_of_rho     :     13.32s CPU     13.54s WALL (      12 calls)
     mix_rho      :      1.19s CPU      1.28s WALL (      11 calls)

     Called by c_bands:
     init_us_2    :      0.30s CPU      0.31s WALL (      23 calls)
     regterg      :      7.33s CPU      7.42s WALL (      11 calls)

     Called by *egterg:
     h_psi        :      7.04s CPU      7.12s WALL (      41 calls)
     g_psi        :      0.08s CPU      0.08s WALL (      29 calls)
     rdiaghg      :      0.01s CPU      0.01s WALL (      40 calls)

     Called by h_psi:
     add_vuspsi   :      0.10s CPU      0.10s WALL (      41 calls)

     General routines
     calbec       :      0.13s CPU      0.14s WALL (      46 calls)
     fft          :      3.56s CPU      3.65s WALL (     139 calls)
     fftw         :      6.14s CPU      6.21s WALL (     338 calls)

     Parallel routines
     fft_scatter  :      2.42s CPU      2.46s WALL (     477 calls)

     PWSCF        :    27.55s CPU        28.09s WALL


   This run was terminated on:  17:32:21   4Jul2020            

=------------------------------------------------------------------------------=
   JOB DONE.
=------------------------------------------------------------------------------=
