
     Program PWSCF v.5.1.1 starts on  4Jul2020 at 16:12:52 

     This program is part of the open-source Quantum ESPRESSO suite
     for quantum simulation of materials; please cite
         "P. Giannozzi et al., J. Phys.:Condens. Matter 21 395502 (2009);
          URL http://www.quantum-espresso.org", 
     in publications or presentations arising from this work. More details at
     http://www.quantum-espresso.org/quote

     Parallel version (MPI), running on     1 processors
     Waiting for input...
     Reading input from standard input
Warning: card &IONS ignored
Warning: card / ignored
Warning: card &CELL ignored
Warning: card / ignored

     Current dimensions of program PWSCF are:
     Max number of different atomic species (ntypx) = 10
     Max number of k-points (npk) =  40000
     Max angular momentum in pseudopotentials (lmaxx) =  3

     gamma-point specific algorithms are used

     Subspace diagonalization in iterative solution of the eigenvalue problem:
     a serial algorithm will be used


     G-vector sticks info
     --------------------
     sticks:   dense  smooth     PW     G-vecs:    dense   smooth      PW
     Sum        5689    5689   1433               322453   322453   40339
     Tot        2845    2845    717



     bravais-lattice index     =            1
     lattice parameter (alat)  =      18.8973  a.u.
     unit-cell volume          =    6748.3346 (a.u.)^3
     number of atoms/cell      =            8
     number of atomic types    =            2
     number of electrons       =        14.00
     number of Kohn-Sham states=            7
     kinetic-energy cutoff     =      50.0000  Ry
     charge density cutoff     =     200.0000  Ry
     convergence threshold     =      1.0E-06
     mixing beta               =       0.2000
     number of iterations used =            8  plain     mixing
     Exchange-correlation      = PBE ( 1  4  3  4 0 0)

     celldm(1)=  18.897261  celldm(2)=   0.000000  celldm(3)=   0.000000
     celldm(4)=   0.000000  celldm(5)=   0.000000  celldm(6)=   0.000000

     crystal axes: (cart. coord. in units of alat)
               a(1) = (   1.000000   0.000000   0.000000 )  
               a(2) = (   0.000000   1.000000   0.000000 )  
               a(3) = (   0.000000   0.000000   1.000000 )  

     reciprocal axes: (cart. coord. in units 2 pi/alat)
               b(1) = (  1.000000  0.000000  0.000000 )  
               b(2) = (  0.000000  1.000000  0.000000 )  
               b(3) = (  0.000000  0.000000  1.000000 )  


     PseudoPot. # 1 for C  read from file:
     ../../pseudo-potentials/C_ONCV_PBE-1.0.upf
     MD5 check sum: 40f8c33130f0afa4272e9dcc1c4fb0df
     Pseudo is Norm-conserving, Zval =  4.0
     Generated using ONCVPSP code by D. R. Hamann
     Using radial grid of  602 points,  4 beta functions with: 
                l(1) =   0
                l(2) =   0
                l(3) =   1
                l(4) =   1

     PseudoPot. # 2 for H  read from file:
     ../../pseudo-potentials/H_ONCV_PBE-1.0.upf
     MD5 check sum: 10f92816c437af099bca1a183851adc8
     Pseudo is Norm-conserving, Zval =  1.0
     Generated using ONCVPSP code by D. R. Hamann
     Using radial grid of  602 points,  2 beta functions with: 
                l(1) =   0
                l(2) =   0

     atomic species   valence    mass     pseudopotential
        C              4.00     1.00000     C ( 1.00)
        H              1.00     1.00000     H ( 1.00)

     No symmetry found



   Cartesian axes

     site n.     atom                  positions (alat units)
         1           C   tau(   1) = (   1.7511360   2.1790400   2.0007920  )
         2           C   tau(   2) = (   1.8431920   2.3018680   2.0025720  )
         3           H   tau(   3) = (   1.7958440   2.0800160   1.9968360  )
         4           H   tau(   4) = (   1.7030960   2.1824920   1.8994120  )
         5           H   tau(   5) = (   1.6719360   2.1811200   2.0712960  )
         6           H   tau(   6) = (   1.8276920   2.3718760   2.0857880  )
         7           H   tau(   7) = (   1.8346640   2.3568240   1.9014160  )
         8           H   tau(   8) = (   1.9475360   2.2754960   2.0051520  )

     number of k points=     1
                       cart. coord. in units 2pi/alat
        k(    1) = (   0.0000000   0.0000000   0.0000000), wk =   2.0000000

     Dense  grid:   161227 G-vectors     FFT dimensions: (  90,  90,  90)

     Largest allocated arrays     est. size (Mb)     dimensions
        Kohn-Sham Wavefunctions         2.15 Mb     (   20170,    7)
        NL pseudopotentials             8.62 Mb     (   20170,   28)
        Each V/rho on FFT grid         11.12 Mb     (  729000)
        Each G-vector array             1.23 Mb     (  161227)
        G-vector shells                 0.01 Mb     (    1510)
     Largest temporary arrays     est. size (Mb)     dimensions
        Auxiliary wavefunctions         4.31 Mb     (   20170,   28)
        Each subspace H/S matrix        0.01 Mb     (      28,   28)
        Each <psi_i|beta_j> matrix      0.00 Mb     (      28,    7)
        Arrays for rho mixing          88.99 Mb     (  729000,    8)

     Initial potential from superposition of free atoms
     Check: negative starting charge=   -0.000640

     starting charge   13.97327, renormalised to   14.00000

     negative rho (up, down):  6.408E-04 0.000E+00
     Starting wfc are random

     total cpu time spent up to now is        1.9 secs

     per-process dynamical memory:   141.6 Mb

     Self-consistent Calculation

     iteration #  1     ecut=    50.00 Ry     beta=0.20
     Davidson diagonalization with overlap
     ethr =  1.00E-02,  avg # of iterations =  9.0

     negative rho (up, down):  4.227E-04 0.000E+00

     total cpu time spent up to now is        5.1 secs

     total energy              =     -30.00176646 Ry
     Harris-Foulkes estimate   =     -30.23986784 Ry
     estimated scf accuracy    <       0.92862853 Ry

     iteration #  2     ecut=    50.00 Ry     beta=0.20
     Davidson diagonalization with overlap
     ethr =  6.63E-03,  avg # of iterations =  1.0

     negative rho (up, down):  1.189E-04 0.000E+00

     total cpu time spent up to now is        6.9 secs

     total energy              =     -29.78404337 Ry
     Harris-Foulkes estimate   =     -30.02664150 Ry
     estimated scf accuracy    <       0.41716070 Ry

     iteration #  3     ecut=    50.00 Ry     beta=0.20
     Davidson diagonalization with overlap
     ethr =  2.98E-03,  avg # of iterations =  2.0

     negative rho (up, down):  1.491E-04 0.000E+00

     total cpu time spent up to now is        8.9 secs

     total energy              =     -29.95666732 Ry
     Harris-Foulkes estimate   =     -29.91330852 Ry
     estimated scf accuracy    <       0.09117480 Ry

     iteration #  4     ecut=    50.00 Ry     beta=0.20
     Davidson diagonalization with overlap
     ethr =  6.51E-04,  avg # of iterations =  2.0

     negative rho (up, down):  2.014E-05 0.000E+00

     total cpu time spent up to now is       10.9 secs

     total energy              =     -29.85417526 Ry
     Harris-Foulkes estimate   =     -29.96903662 Ry
     estimated scf accuracy    <       0.27481718 Ry

     iteration #  5     ecut=    50.00 Ry     beta=0.20
     Davidson diagonalization with overlap
     ethr =  6.51E-04,  avg # of iterations =  2.0

     negative rho (up, down):  2.599E-06 0.000E+00

     total cpu time spent up to now is       12.9 secs

     total energy              =     -29.88323807 Ry
     Harris-Foulkes estimate   =     -29.88659354 Ry
     estimated scf accuracy    <       0.01209936 Ry

     iteration #  6     ecut=    50.00 Ry     beta=0.20
     Davidson diagonalization with overlap
     ethr =  8.64E-05,  avg # of iterations =  1.0

     negative rho (up, down):  1.181E-06 0.000E+00

     total cpu time spent up to now is       14.7 secs

     total energy              =     -29.88199525 Ry
     Harris-Foulkes estimate   =     -29.88398511 Ry
     estimated scf accuracy    <       0.00411468 Ry

     iteration #  7     ecut=    50.00 Ry     beta=0.20
     Davidson diagonalization with overlap
     ethr =  2.94E-05,  avg # of iterations =  2.0

     negative rho (up, down):  1.978E-08 0.000E+00

     total cpu time spent up to now is       16.7 secs

     total energy              =     -29.88331092 Ry
     Harris-Foulkes estimate   =     -29.88342668 Ry
     estimated scf accuracy    <       0.00026772 Ry

     iteration #  8     ecut=    50.00 Ry     beta=0.20
     Davidson diagonalization with overlap
     ethr =  1.91E-06,  avg # of iterations =  2.0

     total cpu time spent up to now is       18.8 secs

     total energy              =     -29.88338034 Ry
     Harris-Foulkes estimate   =     -29.88337921 Ry
     estimated scf accuracy    <       0.00001359 Ry

     iteration #  9     ecut=    50.00 Ry     beta=0.20
     Davidson diagonalization with overlap
     ethr =  9.71E-08,  avg # of iterations =  2.0

     total cpu time spent up to now is       20.8 secs

     total energy              =     -29.88338250 Ry
     Harris-Foulkes estimate   =     -29.88338242 Ry
     estimated scf accuracy    <       0.00001369 Ry

     iteration # 10     ecut=    50.00 Ry     beta=0.20
     Davidson diagonalization with overlap
     ethr =  9.71E-08,  avg # of iterations =  1.0

     total cpu time spent up to now is       22.7 secs

     total energy              =     -29.88337850 Ry
     Harris-Foulkes estimate   =     -29.88338321 Ry
     estimated scf accuracy    <       0.00001213 Ry

     iteration # 11     ecut=    50.00 Ry     beta=0.20
     Davidson diagonalization with overlap
     ethr =  8.66E-08,  avg # of iterations =  2.0

     total cpu time spent up to now is       24.6 secs

     total energy              =     -29.88337942 Ry
     Harris-Foulkes estimate   =     -29.88337963 Ry
     estimated scf accuracy    <       0.00000116 Ry

     iteration # 12     ecut=    50.00 Ry     beta=0.20
     Davidson diagonalization with overlap
     ethr =  8.29E-09,  avg # of iterations =  2.0

     total cpu time spent up to now is       26.3 secs

     End of self-consistent calculation

          k = 0.0000 0.0000 0.0000 ( 20170 PWs)   bands (ev):

   -18.2212 -14.8421 -10.3891  -9.9813  -8.7411  -8.0728  -7.3286

     highest occupied level (ev):    -7.3286

!    total energy              =     -29.88337919 Ry
     Harris-Foulkes estimate   =     -29.88337953 Ry
     estimated scf accuracy    <       0.00000058 Ry

     The total energy is the sum of the following terms:

     one-electron contribution =     -88.35236289 Ry
     hartree contribution      =      45.79039409 Ry
     xc contribution           =     -11.29067197 Ry
     ewald contribution        =      23.96926159 Ry

     convergence has been achieved in  12 iterations

     Forces acting on atoms (Ry/au):

     atom    1 type  1   force =    -0.00156739    0.01707665   -0.09223900
     atom    2 type  1   force =    -0.00092906    0.01978628   -0.05094686
     atom    3 type  2   force =     0.02224830   -0.00416343    0.02131901
     atom    4 type  2   force =    -0.00657655   -0.00468267    0.02542289
     atom    5 type  2   force =    -0.02873475    0.00045810    0.03624319
     atom    6 type  2   force =    -0.00916543   -0.00168087   -0.00606723
     atom    7 type  2   force =    -0.00275252   -0.01394678    0.05810848
     atom    8 type  2   force =     0.02747740   -0.01284727    0.00815952

     Total force =     0.142467     Total SCF correction =     0.000826


     entering subroutine stress ...

          total   stress  (Ry/bohr**3)                   (kbar)     P=   -2.31
   0.00000660  -0.00000449  -0.00000530          0.97     -0.66     -0.78
  -0.00000449  -0.00001875   0.00000500         -0.66     -2.76      0.74
  -0.00000530   0.00000500  -0.00003499         -0.78      0.74     -5.15


     init_run     :      1.73s CPU      1.82s WALL (       1 calls)
     electrons    :     23.87s CPU     24.41s WALL (       1 calls)
     forces       :      0.96s CPU      0.97s WALL (       1 calls)
     stress       :      1.21s CPU      1.26s WALL (       1 calls)

     Called by init_run:
     wfcinit      :      0.20s CPU      0.21s WALL (       1 calls)
     potinit      :      1.19s CPU      1.26s WALL (       1 calls)

     Called by electrons:
     c_bands      :      7.05s CPU      7.10s WALL (      12 calls)
     sum_band     :      1.99s CPU      2.00s WALL (      12 calls)
     v_of_rho     :     14.63s CPU     15.06s WALL (      13 calls)
     mix_rho      :      1.07s CPU      1.14s WALL (      12 calls)

     Called by c_bands:
     init_us_2    :      0.34s CPU      0.35s WALL (      25 calls)
     regterg      :      6.42s CPU      6.47s WALL (      12 calls)

     Called by *egterg:
     h_psi        :      6.21s CPU      6.25s WALL (      41 calls)
     g_psi        :      0.08s CPU      0.08s WALL (      28 calls)
     rdiaghg      :      0.01s CPU      0.01s WALL (      40 calls)

     Called by h_psi:
     add_vuspsi   :      0.09s CPU      0.09s WALL (      41 calls)

     General routines
     calbec       :      0.12s CPU      0.13s WALL (      46 calls)
     fft          :      3.83s CPU      3.98s WALL (     150 calls)
     fftw         :      5.70s CPU      5.73s WALL (     346 calls)

     Parallel routines
     fft_scatter  :      2.17s CPU      2.24s WALL (     496 calls)

     PWSCF        :    27.80s CPU        28.52s WALL


   This run was terminated on:  16:13:20   4Jul2020            

=------------------------------------------------------------------------------=
   JOB DONE.
=------------------------------------------------------------------------------=
