
     Program PWSCF v.5.1.1 starts on  4Jul2020 at 16:12:52 

     This program is part of the open-source Quantum ESPRESSO suite
     for quantum simulation of materials; please cite
         "P. Giannozzi et al., J. Phys.:Condens. Matter 21 395502 (2009);
          URL http://www.quantum-espresso.org", 
     in publications or presentations arising from this work. More details at
     http://www.quantum-espresso.org/quote

     Parallel version (MPI), running on     1 processors
     Waiting for input...
     Reading input from standard input
Warning: card &IONS ignored
Warning: card / ignored
Warning: card &CELL ignored
Warning: card / ignored

     Current dimensions of program PWSCF are:
     Max number of different atomic species (ntypx) = 10
     Max number of k-points (npk) =  40000
     Max angular momentum in pseudopotentials (lmaxx) =  3

     gamma-point specific algorithms are used

     Subspace diagonalization in iterative solution of the eigenvalue problem:
     a serial algorithm will be used


     G-vector sticks info
     --------------------
     sticks:   dense  smooth     PW     G-vecs:    dense   smooth      PW
     Sum        5689    5689   1433               322453   322453   40339
     Tot        2845    2845    717



     bravais-lattice index     =            1
     lattice parameter (alat)  =      18.8973  a.u.
     unit-cell volume          =    6748.3346 (a.u.)^3
     number of atoms/cell      =            8
     number of atomic types    =            2
     number of electrons       =        14.00
     number of Kohn-Sham states=            7
     kinetic-energy cutoff     =      50.0000  Ry
     charge density cutoff     =     200.0000  Ry
     convergence threshold     =      1.0E-06
     mixing beta               =       0.2000
     number of iterations used =            8  plain     mixing
     Exchange-correlation      = PBE ( 1  4  3  4 0 0)

     celldm(1)=  18.897261  celldm(2)=   0.000000  celldm(3)=   0.000000
     celldm(4)=   0.000000  celldm(5)=   0.000000  celldm(6)=   0.000000

     crystal axes: (cart. coord. in units of alat)
               a(1) = (   1.000000   0.000000   0.000000 )  
               a(2) = (   0.000000   1.000000   0.000000 )  
               a(3) = (   0.000000   0.000000   1.000000 )  

     reciprocal axes: (cart. coord. in units 2 pi/alat)
               b(1) = (  1.000000  0.000000  0.000000 )  
               b(2) = (  0.000000  1.000000  0.000000 )  
               b(3) = (  0.000000  0.000000  1.000000 )  


     PseudoPot. # 1 for C  read from file:
     ../../pseudo-potentials/C_ONCV_PBE-1.0.upf
     MD5 check sum: 40f8c33130f0afa4272e9dcc1c4fb0df
     Pseudo is Norm-conserving, Zval =  4.0
     Generated using ONCVPSP code by D. R. Hamann
     Using radial grid of  602 points,  4 beta functions with: 
                l(1) =   0
                l(2) =   0
                l(3) =   1
                l(4) =   1

     PseudoPot. # 2 for H  read from file:
     ../../pseudo-potentials/H_ONCV_PBE-1.0.upf
     MD5 check sum: 10f92816c437af099bca1a183851adc8
     Pseudo is Norm-conserving, Zval =  1.0
     Generated using ONCVPSP code by D. R. Hamann
     Using radial grid of  602 points,  2 beta functions with: 
                l(1) =   0
                l(2) =   0

     atomic species   valence    mass     pseudopotential
        C              4.00     1.00000     C ( 1.00)
        H              1.00     1.00000     H ( 1.00)

     No symmetry found



   Cartesian axes

     site n.     atom                  positions (alat units)
         1           C   tau(   1) = (   1.7510440   2.1765080   1.9945120  )
         2           C   tau(   2) = (   1.8430160   2.3041280   2.0061520  )
         3           H   tau(   3) = (   1.7626400   2.1217840   2.0891240  )
         4           H   tau(   4) = (   1.7793800   2.1078520   1.9102960  )
         5           H   tau(   5) = (   1.6479720   2.2076200   1.9766920  )
         6           H   tau(   6) = (   1.9018280   2.3033600   2.1018080  )
         7           H   tau(   7) = (   1.7807200   2.3975880   1.9930560  )
         8           H   tau(   8) = (   1.9113760   2.3128640   1.9211160  )

     number of k points=     1
                       cart. coord. in units 2pi/alat
        k(    1) = (   0.0000000   0.0000000   0.0000000), wk =   2.0000000

     Dense  grid:   161227 G-vectors     FFT dimensions: (  90,  90,  90)

     Largest allocated arrays     est. size (Mb)     dimensions
        Kohn-Sham Wavefunctions         2.15 Mb     (   20170,    7)
        NL pseudopotentials             8.62 Mb     (   20170,   28)
        Each V/rho on FFT grid         11.12 Mb     (  729000)
        Each G-vector array             1.23 Mb     (  161227)
        G-vector shells                 0.01 Mb     (    1510)
     Largest temporary arrays     est. size (Mb)     dimensions
        Auxiliary wavefunctions         4.31 Mb     (   20170,   28)
        Each subspace H/S matrix        0.01 Mb     (      28,   28)
        Each <psi_i|beta_j> matrix      0.00 Mb     (      28,    7)
        Arrays for rho mixing          88.99 Mb     (  729000,    8)

     Initial potential from superposition of free atoms
     Check: negative starting charge=   -0.000635

     starting charge   13.97327, renormalised to   14.00000

     negative rho (up, down):  6.364E-04 0.000E+00
     Starting wfc are random

     total cpu time spent up to now is        2.2 secs

     per-process dynamical memory:   141.6 Mb

     Self-consistent Calculation

     iteration #  1     ecut=    50.00 Ry     beta=0.20
     Davidson diagonalization with overlap
     ethr =  1.00E-02,  avg # of iterations =  9.0

     negative rho (up, down):  4.477E-04 0.000E+00

     total cpu time spent up to now is        5.6 secs

     total energy              =     -29.99823487 Ry
     Harris-Foulkes estimate   =     -30.22901219 Ry
     estimated scf accuracy    <       0.89988256 Ry

     iteration #  2     ecut=    50.00 Ry     beta=0.20
     Davidson diagonalization with overlap
     ethr =  6.43E-03,  avg # of iterations =  1.0

     negative rho (up, down):  1.413E-04 0.000E+00

     total cpu time spent up to now is        7.6 secs

     total energy              =     -29.80477500 Ry
     Harris-Foulkes estimate   =     -30.02267529 Ry
     estimated scf accuracy    <       0.38810076 Ry

     iteration #  3     ecut=    50.00 Ry     beta=0.20
     Davidson diagonalization with overlap
     ethr =  2.77E-03,  avg # of iterations =  2.0

     negative rho (up, down):  1.876E-04 0.000E+00

     total cpu time spent up to now is        9.8 secs

     total energy              =     -29.94959707 Ry
     Harris-Foulkes estimate   =     -29.91599036 Ry
     estimated scf accuracy    <       0.07667118 Ry

     iteration #  4     ecut=    50.00 Ry     beta=0.20
     Davidson diagonalization with overlap
     ethr =  5.48E-04,  avg # of iterations =  2.0

     negative rho (up, down):  1.963E-05 0.000E+00

     total cpu time spent up to now is       11.8 secs

     total energy              =     -29.86628823 Ry
     Harris-Foulkes estimate   =     -29.95934609 Ry
     estimated scf accuracy    <       0.21923835 Ry

     iteration #  5     ecut=    50.00 Ry     beta=0.20
     Davidson diagonalization with overlap
     ethr =  5.48E-04,  avg # of iterations =  2.0

     negative rho (up, down):  1.976E-06 0.000E+00

     total cpu time spent up to now is       13.9 secs

     total energy              =     -29.88981928 Ry
     Harris-Foulkes estimate   =     -29.89247335 Ry
     estimated scf accuracy    <       0.00804635 Ry

     iteration #  6     ecut=    50.00 Ry     beta=0.20
     Davidson diagonalization with overlap
     ethr =  5.75E-05,  avg # of iterations =  2.0

     negative rho (up, down):  1.093E-06 0.000E+00

     total cpu time spent up to now is       15.8 secs

     total energy              =     -29.88972860 Ry
     Harris-Foulkes estimate   =     -29.89048741 Ry
     estimated scf accuracy    <       0.00167413 Ry

     iteration #  7     ecut=    50.00 Ry     beta=0.20
     Davidson diagonalization with overlap
     ethr =  1.20E-05,  avg # of iterations =  3.0

     negative rho (up, down):  5.083E-08 0.000E+00

     total cpu time spent up to now is       18.0 secs

     total energy              =     -29.89030662 Ry
     Harris-Foulkes estimate   =     -29.89037926 Ry
     estimated scf accuracy    <       0.00017351 Ry

     iteration #  8     ecut=    50.00 Ry     beta=0.20
     Davidson diagonalization with overlap
     ethr =  1.24E-06,  avg # of iterations =  2.0

     total cpu time spent up to now is       20.1 secs

     total energy              =     -29.89033899 Ry
     Harris-Foulkes estimate   =     -29.89033650 Ry
     estimated scf accuracy    <       0.00000703 Ry

     iteration #  9     ecut=    50.00 Ry     beta=0.20
     Davidson diagonalization with overlap
     ethr =  5.02E-08,  avg # of iterations =  2.0

     total cpu time spent up to now is       22.2 secs

     total energy              =     -29.89033908 Ry
     Harris-Foulkes estimate   =     -29.89034092 Ry
     estimated scf accuracy    <       0.00000757 Ry

     iteration # 10     ecut=    50.00 Ry     beta=0.20
     Davidson diagonalization with overlap
     ethr =  5.02E-08,  avg # of iterations =  2.0

     total cpu time spent up to now is       24.1 secs

     total energy              =     -29.89033780 Ry
     Harris-Foulkes estimate   =     -29.89033981 Ry
     estimated scf accuracy    <       0.00000382 Ry

     iteration # 11     ecut=    50.00 Ry     beta=0.20
     Davidson diagonalization with overlap
     ethr =  2.73E-08,  avg # of iterations =  2.0

     total cpu time spent up to now is       25.8 secs

     End of self-consistent calculation

          k = 0.0000 0.0000 0.0000 ( 20170 PWs)   bands (ev):

   -18.0023 -14.6691 -10.3892  -9.9238  -8.3198  -8.0247  -7.6139

     highest occupied level (ev):    -7.6139

!    total energy              =     -29.89033839 Ry
     Harris-Foulkes estimate   =     -29.89033897 Ry
     estimated scf accuracy    <       0.00000079 Ry

     The total energy is the sum of the following terms:

     one-electron contribution =     -87.08071598 Ry
     hartree contribution      =      45.14909245 Ry
     xc contribution           =     -11.21834231 Ry
     ewald contribution        =      23.25962745 Ry

     convergence has been achieved in  11 iterations

     Forces acting on atoms (Ry/au):

     atom    1 type  1   force =     0.04159211    0.01558010   -0.00894974
     atom    2 type  1   force =    -0.02742080    0.00493492   -0.01405142
     atom    3 type  2   force =    -0.01804040   -0.00703019   -0.00773087
     atom    4 type  2   force =    -0.00142673    0.01940907    0.02260887
     atom    5 type  2   force =    -0.00794210   -0.00736914    0.00832899
     atom    6 type  2   force =    -0.01914116    0.01077302   -0.02878894
     atom    7 type  2   force =     0.01912965   -0.02626851    0.02648406
     atom    8 type  2   force =     0.01324942   -0.01002928    0.00209905

     Total force =     0.088808     Total SCF correction =     0.000664


     entering subroutine stress ...

          total   stress  (Ry/bohr**3)                   (kbar)     P=   -4.45
  -0.00002244   0.00000377  -0.00001346         -3.30      0.55     -1.98
   0.00000377  -0.00003358  -0.00000040          0.55     -4.94     -0.06
  -0.00001346  -0.00000040  -0.00003477         -1.98     -0.06     -5.11


     init_run     :      2.00s CPU      2.14s WALL (       1 calls)
     electrons    :     22.98s CPU     23.59s WALL (       1 calls)
     forces       :      0.90s CPU      0.91s WALL (       1 calls)
     stress       :      1.17s CPU      1.22s WALL (       1 calls)

     Called by init_run:
     wfcinit      :      0.24s CPU      0.25s WALL (       1 calls)
     potinit      :      1.40s CPU      1.49s WALL (       1 calls)

     Called by electrons:
     c_bands      :      7.40s CPU      7.54s WALL (      11 calls)
     sum_band     :      1.86s CPU      1.88s WALL (      11 calls)
     v_of_rho     :     13.71s CPU     14.07s WALL (      12 calls)
     mix_rho      :      1.05s CPU      1.18s WALL (      11 calls)

     Called by c_bands:
     init_us_2    :      0.32s CPU      0.33s WALL (      23 calls)
     regterg      :      6.82s CPU      6.94s WALL (      11 calls)

     Called by *egterg:
     h_psi        :      6.62s CPU      6.72s WALL (      41 calls)
     g_psi        :      0.08s CPU      0.08s WALL (      29 calls)
     rdiaghg      :      0.01s CPU      0.01s WALL (      40 calls)

     Called by h_psi:
     add_vuspsi   :      0.09s CPU      0.10s WALL (      41 calls)

     General routines
     calbec       :      0.12s CPU      0.14s WALL (      46 calls)
     fft          :      3.64s CPU      3.75s WALL (     139 calls)
     fftw         :      5.90s CPU      5.94s WALL (     340 calls)

     Parallel routines
     fft_scatter  :      2.23s CPU      2.29s WALL (     479 calls)

     PWSCF        :    27.09s CPU        27.91s WALL


   This run was terminated on:  16:13:20   4Jul2020            

=------------------------------------------------------------------------------=
   JOB DONE.
=------------------------------------------------------------------------------=
