
     Program PWSCF v.5.1.1 starts on  4Jul2020 at 16:12:16 

     This program is part of the open-source Quantum ESPRESSO suite
     for quantum simulation of materials; please cite
         "P. Giannozzi et al., J. Phys.:Condens. Matter 21 395502 (2009);
          URL http://www.quantum-espresso.org", 
     in publications or presentations arising from this work. More details at
     http://www.quantum-espresso.org/quote

     Parallel version (MPI), running on     1 processors
     Waiting for input...
     Reading input from standard input
Warning: card &IONS ignored
Warning: card / ignored
Warning: card &CELL ignored
Warning: card / ignored

     Current dimensions of program PWSCF are:
     Max number of different atomic species (ntypx) = 10
     Max number of k-points (npk) =  40000
     Max angular momentum in pseudopotentials (lmaxx) =  3

     gamma-point specific algorithms are used

     Subspace diagonalization in iterative solution of the eigenvalue problem:
     a serial algorithm will be used


     G-vector sticks info
     --------------------
     sticks:   dense  smooth     PW     G-vecs:    dense   smooth      PW
     Sum        5689    5689   1433               322453   322453   40339
     Tot        2845    2845    717



     bravais-lattice index     =            1
     lattice parameter (alat)  =      18.8973  a.u.
     unit-cell volume          =    6748.3346 (a.u.)^3
     number of atoms/cell      =            8
     number of atomic types    =            2
     number of electrons       =        14.00
     number of Kohn-Sham states=            7
     kinetic-energy cutoff     =      50.0000  Ry
     charge density cutoff     =     200.0000  Ry
     convergence threshold     =      1.0E-06
     mixing beta               =       0.2000
     number of iterations used =            8  plain     mixing
     Exchange-correlation      = PBE ( 1  4  3  4 0 0)

     celldm(1)=  18.897261  celldm(2)=   0.000000  celldm(3)=   0.000000
     celldm(4)=   0.000000  celldm(5)=   0.000000  celldm(6)=   0.000000

     crystal axes: (cart. coord. in units of alat)
               a(1) = (   1.000000   0.000000   0.000000 )  
               a(2) = (   0.000000   1.000000   0.000000 )  
               a(3) = (   0.000000   0.000000   1.000000 )  

     reciprocal axes: (cart. coord. in units 2 pi/alat)
               b(1) = (  1.000000  0.000000  0.000000 )  
               b(2) = (  0.000000  1.000000  0.000000 )  
               b(3) = (  0.000000  0.000000  1.000000 )  


     PseudoPot. # 1 for C  read from file:
     ../../pseudo-potentials/C_ONCV_PBE-1.0.upf
     MD5 check sum: 40f8c33130f0afa4272e9dcc1c4fb0df
     Pseudo is Norm-conserving, Zval =  4.0
     Generated using ONCVPSP code by D. R. Hamann
     Using radial grid of  602 points,  4 beta functions with: 
                l(1) =   0
                l(2) =   0
                l(3) =   1
                l(4) =   1

     PseudoPot. # 2 for H  read from file:
     ../../pseudo-potentials/H_ONCV_PBE-1.0.upf
     MD5 check sum: 10f92816c437af099bca1a183851adc8
     Pseudo is Norm-conserving, Zval =  1.0
     Generated using ONCVPSP code by D. R. Hamann
     Using radial grid of  602 points,  2 beta functions with: 
                l(1) =   0
                l(2) =   0

     atomic species   valence    mass     pseudopotential
        C              4.00     1.00000     C ( 1.00)
        H              1.00     1.00000     H ( 1.00)

     No symmetry found



   Cartesian axes

     site n.     atom                  positions (alat units)
         1           C   tau(   1) = (   1.7481240   2.1840640   2.0048680  )
         2           C   tau(   2) = (   1.8436720   2.3000720   1.9953600  )
         3           H   tau(   3) = (   1.6898240   2.1635680   1.9135080  )
         4           H   tau(   4) = (   1.6844160   2.1724480   2.0941400  )
         5           H   tau(   5) = (   1.8012360   2.0912000   1.9971200  )
         6           H   tau(   6) = (   1.9491680   2.2504560   2.0236400  )
         7           H   tau(   7) = (   1.8337280   2.3755560   2.0670320  )
         8           H   tau(   8) = (   1.8525560   2.3561320   1.9018560  )

     number of k points=     1
                       cart. coord. in units 2pi/alat
        k(    1) = (   0.0000000   0.0000000   0.0000000), wk =   2.0000000

     Dense  grid:   161227 G-vectors     FFT dimensions: (  90,  90,  90)

     Largest allocated arrays     est. size (Mb)     dimensions
        Kohn-Sham Wavefunctions         2.15 Mb     (   20170,    7)
        NL pseudopotentials             8.62 Mb     (   20170,   28)
        Each V/rho on FFT grid         11.12 Mb     (  729000)
        Each G-vector array             1.23 Mb     (  161227)
        G-vector shells                 0.01 Mb     (    1510)
     Largest temporary arrays     est. size (Mb)     dimensions
        Auxiliary wavefunctions         4.31 Mb     (   20170,   28)
        Each subspace H/S matrix        0.01 Mb     (      28,   28)
        Each <psi_i|beta_j> matrix      0.00 Mb     (      28,    7)
        Arrays for rho mixing          88.99 Mb     (  729000,    8)

     Initial potential from superposition of free atoms
     Check: negative starting charge=   -0.000639

     starting charge   13.97327, renormalised to   14.00000

     negative rho (up, down):  6.400E-04 0.000E+00
     Starting wfc are random

     total cpu time spent up to now is        1.9 secs

     per-process dynamical memory:   141.6 Mb

     Self-consistent Calculation

     iteration #  1     ecut=    50.00 Ry     beta=0.20
     Davidson diagonalization with overlap
     ethr =  1.00E-02,  avg # of iterations =  9.0

     negative rho (up, down):  4.171E-04 0.000E+00

     total cpu time spent up to now is        5.2 secs

     total energy              =     -29.98016378 Ry
     Harris-Foulkes estimate   =     -30.22809855 Ry
     estimated scf accuracy    <       0.95747567 Ry

     iteration #  2     ecut=    50.00 Ry     beta=0.20
     Davidson diagonalization with overlap
     ethr =  6.84E-03,  avg # of iterations =  1.0

     negative rho (up, down):  1.178E-04 0.000E+00

     total cpu time spent up to now is        7.1 secs

     total energy              =     -29.76277872 Ry
     Harris-Foulkes estimate   =     -30.00636873 Ry
     estimated scf accuracy    <       0.42140992 Ry

     iteration #  3     ecut=    50.00 Ry     beta=0.20
     Davidson diagonalization with overlap
     ethr =  3.01E-03,  avg # of iterations =  2.0

     negative rho (up, down):  1.501E-04 0.000E+00

     total cpu time spent up to now is        9.1 secs

     total energy              =     -29.94372052 Ry
     Harris-Foulkes estimate   =     -29.89552507 Ry
     estimated scf accuracy    <       0.09596779 Ry

     iteration #  4     ecut=    50.00 Ry     beta=0.20
     Davidson diagonalization with overlap
     ethr =  6.85E-04,  avg # of iterations =  2.0

     negative rho (up, down):  1.980E-05 0.000E+00

     total cpu time spent up to now is       11.1 secs

     total energy              =     -29.82465177 Ry
     Harris-Foulkes estimate   =     -29.95842012 Ry
     estimated scf accuracy    <       0.30511074 Ry

     iteration #  5     ecut=    50.00 Ry     beta=0.20
     Davidson diagonalization with overlap
     ethr =  6.85E-04,  avg # of iterations =  2.0

     negative rho (up, down):  2.496E-06 0.000E+00

     total cpu time spent up to now is       13.1 secs

     total energy              =     -29.86327368 Ry
     Harris-Foulkes estimate   =     -29.86609402 Ry
     estimated scf accuracy    <       0.00784968 Ry

     iteration #  6     ecut=    50.00 Ry     beta=0.20
     Davidson diagonalization with overlap
     ethr =  5.61E-05,  avg # of iterations =  2.0

     negative rho (up, down):  2.864E-06 0.000E+00

     total cpu time spent up to now is       15.0 secs

     total energy              =     -29.86417374 Ry
     Harris-Foulkes estimate   =     -29.86443812 Ry
     estimated scf accuracy    <       0.00073223 Ry

     iteration #  7     ecut=    50.00 Ry     beta=0.20
     Davidson diagonalization with overlap
     ethr =  5.23E-06,  avg # of iterations =  2.0

     total cpu time spent up to now is       17.1 secs

     total energy              =     -29.86423475 Ry
     Harris-Foulkes estimate   =     -29.86437444 Ry
     estimated scf accuracy    <       0.00034780 Ry

     iteration #  8     ecut=    50.00 Ry     beta=0.20
     Davidson diagonalization with overlap
     ethr =  2.48E-06,  avg # of iterations =  2.0

     total cpu time spent up to now is       19.0 secs

     total energy              =     -29.86426729 Ry
     Harris-Foulkes estimate   =     -29.86426954 Ry
     estimated scf accuracy    <       0.00000814 Ry

     iteration #  9     ecut=    50.00 Ry     beta=0.20
     Davidson diagonalization with overlap
     ethr =  5.81E-08,  avg # of iterations =  3.0

     total cpu time spent up to now is       21.1 secs

     total energy              =     -29.86426874 Ry
     Harris-Foulkes estimate   =     -29.86427156 Ry
     estimated scf accuracy    <       0.00000799 Ry

     iteration # 10     ecut=    50.00 Ry     beta=0.20
     Davidson diagonalization with overlap
     ethr =  5.71E-08,  avg # of iterations =  2.0

     total cpu time spent up to now is       22.9 secs

     End of self-consistent calculation

          k = 0.0000 0.0000 0.0000 ( 20170 PWs)   bands (ev):

   -18.3494 -14.9633 -10.3101 -10.0003  -9.1012  -7.9730  -7.0929

     highest occupied level (ev):    -7.0929

!    total energy              =     -29.86426925 Ry
     Harris-Foulkes estimate   =     -29.86426960 Ry
     estimated scf accuracy    <       0.00000068 Ry

     The total energy is the sum of the following terms:

     one-electron contribution =     -88.71095484 Ry
     hartree contribution      =      45.95554627 Ry
     xc contribution           =     -11.29902845 Ry
     ewald contribution        =      24.19016777 Ry

     convergence has been achieved in  10 iterations

     Forces acting on atoms (Ry/au):

     atom    1 type  1   force =    -0.03727946   -0.03371782   -0.03652882
     atom    2 type  1   force =     0.11354909   -0.06961379    0.00783728
     atom    3 type  2   force =    -0.02518295    0.03407671    0.00534263
     atom    4 type  2   force =     0.00270748    0.01917570   -0.00820001
     atom    5 type  2   force =     0.03482767   -0.02952297    0.02102463
     atom    6 type  2   force =    -0.06275356    0.05482557   -0.03312107
     atom    7 type  2   force =    -0.02310149    0.04480632    0.05828197
     atom    8 type  2   force =    -0.00276678   -0.02002972   -0.01463661

     Total force =     0.202625     Total SCF correction =     0.001012


     entering subroutine stress ...

          total   stress  (Ry/bohr**3)                   (kbar)     P=   -1.77
  -0.00001890   0.00000481  -0.00000326         -2.78      0.71     -0.48
   0.00000481  -0.00000859   0.00001512          0.71     -1.26      2.22
  -0.00000326   0.00001512  -0.00000867         -0.48      2.22     -1.28


     init_run     :      1.77s CPU      1.87s WALL (       1 calls)
     electrons    :     20.51s CPU     20.99s WALL (       1 calls)
     forces       :      1.09s CPU      1.10s WALL (       1 calls)
     stress       :      1.41s CPU      1.48s WALL (       1 calls)

     Called by init_run:
     wfcinit      :      0.19s CPU      0.20s WALL (       1 calls)
     potinit      :      1.25s CPU      1.33s WALL (       1 calls)

     Called by electrons:
     c_bands      :      6.50s CPU      6.57s WALL (      10 calls)
     sum_band     :      1.80s CPU      1.80s WALL (      10 calls)
     v_of_rho     :     12.21s CPU     12.57s WALL (      11 calls)
     mix_rho      :      0.96s CPU      1.05s WALL (      10 calls)

     Called by c_bands:
     init_us_2    :      0.27s CPU      0.28s WALL (      21 calls)
     regterg      :      5.99s CPU      6.05s WALL (      10 calls)

     Called by *egterg:
     h_psi        :      5.79s CPU      5.84s WALL (      38 calls)
     g_psi        :      0.08s CPU      0.08s WALL (      27 calls)
     rdiaghg      :      0.01s CPU      0.01s WALL (      37 calls)

     Called by h_psi:
     add_vuspsi   :      0.08s CPU      0.08s WALL (      38 calls)

     General routines
     calbec       :      0.11s CPU      0.12s WALL (      43 calls)
     fft          :      3.26s CPU      3.39s WALL (     128 calls)
     fftw         :      5.24s CPU      5.27s WALL (     312 calls)

     Parallel routines
     fft_scatter  :      1.93s CPU      2.00s WALL (     440 calls)

     PWSCF        :    24.81s CPU        25.49s WALL


   This run was terminated on:  16:12:41   4Jul2020            

=------------------------------------------------------------------------------=
   JOB DONE.
=------------------------------------------------------------------------------=
