
     Program PWSCF v.5.1.1 starts on  4Jul2020 at 16:11:39 

     This program is part of the open-source Quantum ESPRESSO suite
     for quantum simulation of materials; please cite
         "P. Giannozzi et al., J. Phys.:Condens. Matter 21 395502 (2009);
          URL http://www.quantum-espresso.org", 
     in publications or presentations arising from this work. More details at
     http://www.quantum-espresso.org/quote

     Parallel version (MPI), running on     1 processors
     Waiting for input...
     Reading input from standard input
Warning: card &IONS ignored
Warning: card / ignored
Warning: card &CELL ignored
Warning: card / ignored

     Current dimensions of program PWSCF are:
     Max number of different atomic species (ntypx) = 10
     Max number of k-points (npk) =  40000
     Max angular momentum in pseudopotentials (lmaxx) =  3

     gamma-point specific algorithms are used

     Subspace diagonalization in iterative solution of the eigenvalue problem:
     a serial algorithm will be used


     G-vector sticks info
     --------------------
     sticks:   dense  smooth     PW     G-vecs:    dense   smooth      PW
     Sum        5689    5689   1433               322453   322453   40339
     Tot        2845    2845    717



     bravais-lattice index     =            1
     lattice parameter (alat)  =      18.8973  a.u.
     unit-cell volume          =    6748.3346 (a.u.)^3
     number of atoms/cell      =            8
     number of atomic types    =            2
     number of electrons       =        14.00
     number of Kohn-Sham states=            7
     kinetic-energy cutoff     =      50.0000  Ry
     charge density cutoff     =     200.0000  Ry
     convergence threshold     =      1.0E-06
     mixing beta               =       0.2000
     number of iterations used =            8  plain     mixing
     Exchange-correlation      = PBE ( 1  4  3  4 0 0)

     celldm(1)=  18.897261  celldm(2)=   0.000000  celldm(3)=   0.000000
     celldm(4)=   0.000000  celldm(5)=   0.000000  celldm(6)=   0.000000

     crystal axes: (cart. coord. in units of alat)
               a(1) = (   1.000000   0.000000   0.000000 )  
               a(2) = (   0.000000   1.000000   0.000000 )  
               a(3) = (   0.000000   0.000000   1.000000 )  

     reciprocal axes: (cart. coord. in units 2 pi/alat)
               b(1) = (  1.000000  0.000000  0.000000 )  
               b(2) = (  0.000000  1.000000  0.000000 )  
               b(3) = (  0.000000  0.000000  1.000000 )  


     PseudoPot. # 1 for C  read from file:
     ../../pseudo-potentials/C_ONCV_PBE-1.0.upf
     MD5 check sum: 40f8c33130f0afa4272e9dcc1c4fb0df
     Pseudo is Norm-conserving, Zval =  4.0
     Generated using ONCVPSP code by D. R. Hamann
     Using radial grid of  602 points,  4 beta functions with: 
                l(1) =   0
                l(2) =   0
                l(3) =   1
                l(4) =   1

     PseudoPot. # 2 for H  read from file:
     ../../pseudo-potentials/H_ONCV_PBE-1.0.upf
     MD5 check sum: 10f92816c437af099bca1a183851adc8
     Pseudo is Norm-conserving, Zval =  1.0
     Generated using ONCVPSP code by D. R. Hamann
     Using radial grid of  602 points,  2 beta functions with: 
                l(1) =   0
                l(2) =   0

     atomic species   valence    mass     pseudopotential
        C              4.00     1.00000     C ( 1.00)
        H              1.00     1.00000     H ( 1.00)

     No symmetry found



   Cartesian axes

     site n.     atom                  positions (alat units)
         1           C   tau(   1) = (   1.7517000   2.1770880   1.9954920  )
         2           C   tau(   2) = (   1.8419400   2.3043840   2.0028560  )
         3           H   tau(   3) = (   1.7590320   2.1199200   1.9039200  )
         4           H   tau(   4) = (   1.6490600   2.2087640   2.0112000  )
         5           H   tau(   5) = (   1.7728880   2.1062040   2.0798320  )
         6           H   tau(   6) = (   1.9145280   2.3047920   1.9202600  )
         7           H   tau(   7) = (   1.9102400   2.2963200   2.0928040  )
         8           H   tau(   8) = (   1.7832040   2.4050840   2.0116840  )

     number of k points=     1
                       cart. coord. in units 2pi/alat
        k(    1) = (   0.0000000   0.0000000   0.0000000), wk =   2.0000000

     Dense  grid:   161227 G-vectors     FFT dimensions: (  90,  90,  90)

     Largest allocated arrays     est. size (Mb)     dimensions
        Kohn-Sham Wavefunctions         2.15 Mb     (   20170,    7)
        NL pseudopotentials             8.62 Mb     (   20170,   28)
        Each V/rho on FFT grid         11.12 Mb     (  729000)
        Each G-vector array             1.23 Mb     (  161227)
        G-vector shells                 0.01 Mb     (    1510)
     Largest temporary arrays     est. size (Mb)     dimensions
        Auxiliary wavefunctions         4.31 Mb     (   20170,   28)
        Each subspace H/S matrix        0.01 Mb     (      28,   28)
        Each <psi_i|beta_j> matrix      0.00 Mb     (      28,    7)
        Arrays for rho mixing          88.99 Mb     (  729000,    8)

     Initial potential from superposition of free atoms
     Check: negative starting charge=   -0.000637

     starting charge   13.97327, renormalised to   14.00000

     negative rho (up, down):  6.379E-04 0.000E+00
     Starting wfc are random

     total cpu time spent up to now is        2.0 secs

     per-process dynamical memory:   141.6 Mb

     Self-consistent Calculation

     iteration #  1     ecut=    50.00 Ry     beta=0.20
     Davidson diagonalization with overlap
     ethr =  1.00E-02,  avg # of iterations =  9.0

     negative rho (up, down):  4.037E-04 0.000E+00

     total cpu time spent up to now is        5.7 secs

     total energy              =     -29.99633531 Ry
     Harris-Foulkes estimate   =     -30.21766162 Ry
     estimated scf accuracy    <       0.87051780 Ry

     iteration #  2     ecut=    50.00 Ry     beta=0.20
     Davidson diagonalization with overlap
     ethr =  6.22E-03,  avg # of iterations =  1.0

     negative rho (up, down):  1.045E-04 0.000E+00

     total cpu time spent up to now is        7.6 secs

     total energy              =     -29.79093952 Ry
     Harris-Foulkes estimate   =     -30.02063020 Ry
     estimated scf accuracy    <       0.39405041 Ry

     iteration #  3     ecut=    50.00 Ry     beta=0.20
     Davidson diagonalization with overlap
     ethr =  2.81E-03,  avg # of iterations =  2.0

     negative rho (up, down):  1.214E-04 0.000E+00

     total cpu time spent up to now is        9.8 secs

     total energy              =     -29.95445996 Ry
     Harris-Foulkes estimate   =     -29.91713553 Ry
     estimated scf accuracy    <       0.09326387 Ry

     iteration #  4     ecut=    50.00 Ry     beta=0.20
     Davidson diagonalization with overlap
     ethr =  6.66E-04,  avg # of iterations =  2.0

     negative rho (up, down):  3.569E-05 0.000E+00

     total cpu time spent up to now is       11.7 secs

     total energy              =     -29.85096790 Ry
     Harris-Foulkes estimate   =     -29.96327046 Ry
     estimated scf accuracy    <       0.23103953 Ry

     iteration #  5     ecut=    50.00 Ry     beta=0.20
     Davidson diagonalization with overlap
     ethr =  6.66E-04,  avg # of iterations =  2.0

     negative rho (up, down):  1.344E-05 0.000E+00

     total cpu time spent up to now is       13.9 secs

     total energy              =     -29.88585892 Ry
     Harris-Foulkes estimate   =     -29.88730431 Ry
     estimated scf accuracy    <       0.00410136 Ry

     iteration #  6     ecut=    50.00 Ry     beta=0.20
     Davidson diagonalization with overlap
     ethr =  2.93E-05,  avg # of iterations =  2.0

     negative rho (up, down):  6.180E-06 0.000E+00

     total cpu time spent up to now is       15.9 secs

     total energy              =     -29.88659894 Ry
     Harris-Foulkes estimate   =     -29.88677872 Ry
     estimated scf accuracy    <       0.00050400 Ry

     iteration #  7     ecut=    50.00 Ry     beta=0.20
     Davidson diagonalization with overlap
     ethr =  3.60E-06,  avg # of iterations =  3.0

     negative rho (up, down):  2.999E-07 0.000E+00

     total cpu time spent up to now is       18.2 secs

     total energy              =     -29.88665430 Ry
     Harris-Foulkes estimate   =     -29.88687169 Ry
     estimated scf accuracy    <       0.00049714 Ry

     iteration #  8     ecut=    50.00 Ry     beta=0.20
     Davidson diagonalization with overlap
     ethr =  3.55E-06,  avg # of iterations =  2.0

     negative rho (up, down):  2.260E-08 0.000E+00

     total cpu time spent up to now is       20.3 secs

     total energy              =     -29.88671302 Ry
     Harris-Foulkes estimate   =     -29.88671342 Ry
     estimated scf accuracy    <       0.00001393 Ry

     iteration #  9     ecut=    50.00 Ry     beta=0.20
     Davidson diagonalization with overlap
     ethr =  9.95E-08,  avg # of iterations =  3.0

     total cpu time spent up to now is       22.6 secs

     total energy              =     -29.88671150 Ry
     Harris-Foulkes estimate   =     -29.88671819 Ry
     estimated scf accuracy    <       0.00001269 Ry

     iteration # 10     ecut=    50.00 Ry     beta=0.20
     Davidson diagonalization with overlap
     ethr =  9.06E-08,  avg # of iterations =  2.0

     total cpu time spent up to now is       24.6 secs

     total energy              =     -29.88671197 Ry
     Harris-Foulkes estimate   =     -29.88671788 Ry
     estimated scf accuracy    <       0.00001048 Ry

     iteration # 11     ecut=    50.00 Ry     beta=0.20
     Davidson diagonalization with overlap
     ethr =  7.49E-08,  avg # of iterations =  2.0

     total cpu time spent up to now is       26.5 secs

     total energy              =     -29.88671473 Ry
     Harris-Foulkes estimate   =     -29.88671528 Ry
     estimated scf accuracy    <       0.00000143 Ry

     iteration # 12     ecut=    50.00 Ry     beta=0.20
     Davidson diagonalization with overlap
     ethr =  1.02E-08,  avg # of iterations =  2.0

     total cpu time spent up to now is       28.0 secs

     End of self-consistent calculation

          k = 0.0000 0.0000 0.0000 ( 20170 PWs)   bands (ev):

   -18.0417 -14.6878 -10.2795  -9.9228  -8.5401  -7.9372  -7.5488

     highest occupied level (ev):    -7.5488

!    total energy              =     -29.88671471 Ry
     Harris-Foulkes estimate   =     -29.88671486 Ry
     estimated scf accuracy    <       0.00000019 Ry

     The total energy is the sum of the following terms:

     one-electron contribution =     -87.04874240 Ry
     hartree contribution      =      45.12848525 Ry
     xc contribution           =     -11.21043936 Ry
     ewald contribution        =      23.24398179 Ry

     convergence has been achieved in  12 iterations

     Forces acting on atoms (Ry/au):

     atom    1 type  1   force =     0.01116413    0.01845350    0.05209336
     atom    2 type  1   force =     0.00835280    0.00890978    0.03486748
     atom    3 type  2   force =     0.00203384   -0.00021362   -0.01830971
     atom    4 type  2   force =    -0.01883278   -0.00534877   -0.00653182
     atom    5 type  2   force =     0.00067811    0.01681072   -0.02057082
     atom    6 type  2   force =    -0.01249455    0.01548670   -0.00762154
     atom    7 type  2   force =    -0.02897619    0.01088365   -0.02032878
     atom    8 type  2   force =     0.03807463   -0.06498196   -0.01359817

     Total force =     0.117038     Total SCF correction =     0.000500


     entering subroutine stress ...

          total   stress  (Ry/bohr**3)                   (kbar)     P=   -4.60
  -0.00002386   0.00001216  -0.00000458         -3.51      1.79     -0.67
   0.00001216  -0.00004854   0.00000092          1.79     -7.14      0.14
  -0.00000458   0.00000092  -0.00002142         -0.67      0.14     -3.15


     init_run     :      1.83s CPU      1.93s WALL (       1 calls)
     electrons    :     25.58s CPU     26.02s WALL (       1 calls)
     forces       :      0.85s CPU      0.85s WALL (       1 calls)
     stress       :      1.12s CPU      1.15s WALL (       1 calls)

     Called by init_run:
     wfcinit      :      0.21s CPU      0.22s WALL (       1 calls)
     potinit      :      1.30s CPU      1.36s WALL (       1 calls)

     Called by electrons:
     c_bands      :      8.28s CPU      8.38s WALL (      12 calls)
     sum_band     :      2.29s CPU      2.31s WALL (      12 calls)
     v_of_rho     :     14.58s CPU     14.85s WALL (      13 calls)
     mix_rho      :      1.36s CPU      1.44s WALL (      12 calls)

     Called by c_bands:
     init_us_2    :      0.33s CPU      0.33s WALL (      25 calls)
     regterg      :      7.66s CPU      7.76s WALL (      12 calls)

     Called by *egterg:
     h_psi        :      7.37s CPU      7.44s WALL (      45 calls)
     g_psi        :      0.09s CPU      0.09s WALL (      32 calls)
     rdiaghg      :      0.01s CPU      0.01s WALL (      44 calls)

     Called by h_psi:
     add_vuspsi   :      0.11s CPU      0.11s WALL (      45 calls)

     General routines
     calbec       :      0.13s CPU      0.14s WALL (      50 calls)
     fft          :      3.95s CPU      4.06s WALL (     150 calls)
     fftw         :      6.59s CPU      6.63s WALL (     366 calls)

     Parallel routines
     fft_scatter  :      2.60s CPU      2.65s WALL (     516 calls)

     PWSCF        :    29.40s CPU        30.01s WALL


   This run was terminated on:  16:12: 9   4Jul2020            

=------------------------------------------------------------------------------=
   JOB DONE.
=------------------------------------------------------------------------------=
