
     Program PWSCF v.5.1.1 starts on  4Jul2020 at 16:11:39 

     This program is part of the open-source Quantum ESPRESSO suite
     for quantum simulation of materials; please cite
         "P. Giannozzi et al., J. Phys.:Condens. Matter 21 395502 (2009);
          URL http://www.quantum-espresso.org", 
     in publications or presentations arising from this work. More details at
     http://www.quantum-espresso.org/quote

     Parallel version (MPI), running on     1 processors
     Waiting for input...
     Reading input from standard input
Warning: card &IONS ignored
Warning: card / ignored
Warning: card &CELL ignored
Warning: card / ignored

     Current dimensions of program PWSCF are:
     Max number of different atomic species (ntypx) = 10
     Max number of k-points (npk) =  40000
     Max angular momentum in pseudopotentials (lmaxx) =  3

     gamma-point specific algorithms are used

     Subspace diagonalization in iterative solution of the eigenvalue problem:
     a serial algorithm will be used


     G-vector sticks info
     --------------------
     sticks:   dense  smooth     PW     G-vecs:    dense   smooth      PW
     Sum        5689    5689   1433               322453   322453   40339
     Tot        2845    2845    717



     bravais-lattice index     =            1
     lattice parameter (alat)  =      18.8973  a.u.
     unit-cell volume          =    6748.3346 (a.u.)^3
     number of atoms/cell      =            8
     number of atomic types    =            2
     number of electrons       =        14.00
     number of Kohn-Sham states=            7
     kinetic-energy cutoff     =      50.0000  Ry
     charge density cutoff     =     200.0000  Ry
     convergence threshold     =      1.0E-06
     mixing beta               =       0.2000
     number of iterations used =            8  plain     mixing
     Exchange-correlation      = PBE ( 1  4  3  4 0 0)

     celldm(1)=  18.897261  celldm(2)=   0.000000  celldm(3)=   0.000000
     celldm(4)=   0.000000  celldm(5)=   0.000000  celldm(6)=   0.000000

     crystal axes: (cart. coord. in units of alat)
               a(1) = (   1.000000   0.000000   0.000000 )  
               a(2) = (   0.000000   1.000000   0.000000 )  
               a(3) = (   0.000000   0.000000   1.000000 )  

     reciprocal axes: (cart. coord. in units 2 pi/alat)
               b(1) = (  1.000000  0.000000  0.000000 )  
               b(2) = (  0.000000  1.000000  0.000000 )  
               b(3) = (  0.000000  0.000000  1.000000 )  


     PseudoPot. # 1 for C  read from file:
     ../../pseudo-potentials/C_ONCV_PBE-1.0.upf
     MD5 check sum: 40f8c33130f0afa4272e9dcc1c4fb0df
     Pseudo is Norm-conserving, Zval =  4.0
     Generated using ONCVPSP code by D. R. Hamann
     Using radial grid of  602 points,  4 beta functions with: 
                l(1) =   0
                l(2) =   0
                l(3) =   1
                l(4) =   1

     PseudoPot. # 2 for H  read from file:
     ../../pseudo-potentials/H_ONCV_PBE-1.0.upf
     MD5 check sum: 10f92816c437af099bca1a183851adc8
     Pseudo is Norm-conserving, Zval =  1.0
     Generated using ONCVPSP code by D. R. Hamann
     Using radial grid of  602 points,  2 beta functions with: 
                l(1) =   0
                l(2) =   0

     atomic species   valence    mass     pseudopotential
        C              4.00     1.00000     C ( 1.00)
        H              1.00     1.00000     H ( 1.00)

     No symmetry found



   Cartesian axes

     site n.     atom                  positions (alat units)
         1           C   tau(   1) = (   1.7486400   2.1806240   1.9942040  )
         2           C   tau(   2) = (   1.8455160   2.3003160   2.0046840  )
         3           H   tau(   3) = (   1.8002760   2.0908800   1.9722880  )
         4           H   tau(   4) = (   1.6550640   2.1963400   1.9305280  )
         5           H   tau(   5) = (   1.7189400   2.1546520   2.0937280  )
         6           H   tau(   6) = (   1.7977520   2.3892720   1.9540360  )
         7           H   tau(   7) = (   1.9455080   2.2893080   1.9517720  )
         8           H   tau(   8) = (   1.8652800   2.3269840   2.1108800  )

     number of k points=     1
                       cart. coord. in units 2pi/alat
        k(    1) = (   0.0000000   0.0000000   0.0000000), wk =   2.0000000

     Dense  grid:   161227 G-vectors     FFT dimensions: (  90,  90,  90)

     Largest allocated arrays     est. size (Mb)     dimensions
        Kohn-Sham Wavefunctions         2.15 Mb     (   20170,    7)
        NL pseudopotentials             8.62 Mb     (   20170,   28)
        Each V/rho on FFT grid         11.12 Mb     (  729000)
        Each G-vector array             1.23 Mb     (  161227)
        G-vector shells                 0.01 Mb     (    1510)
     Largest temporary arrays     est. size (Mb)     dimensions
        Auxiliary wavefunctions         4.31 Mb     (   20170,   28)
        Each subspace H/S matrix        0.01 Mb     (      28,   28)
        Each <psi_i|beta_j> matrix      0.00 Mb     (      28,    7)
        Arrays for rho mixing          88.99 Mb     (  729000,    8)

     Initial potential from superposition of free atoms
     Check: negative starting charge=   -0.000630

     starting charge   13.97327, renormalised to   14.00000

     negative rho (up, down):  6.316E-04 0.000E+00
     Starting wfc are random

     total cpu time spent up to now is        2.1 secs

     per-process dynamical memory:   141.6 Mb

     Self-consistent Calculation

     iteration #  1     ecut=    50.00 Ry     beta=0.20
     Davidson diagonalization with overlap
     ethr =  1.00E-02,  avg # of iterations =  9.0

     negative rho (up, down):  4.217E-04 0.000E+00

     total cpu time spent up to now is        5.8 secs

     total energy              =     -29.99495676 Ry
     Harris-Foulkes estimate   =     -30.22822118 Ry
     estimated scf accuracy    <       0.90963735 Ry

     iteration #  2     ecut=    50.00 Ry     beta=0.20
     Davidson diagonalization with overlap
     ethr =  6.50E-03,  avg # of iterations =  1.0

     negative rho (up, down):  1.207E-04 0.000E+00

     total cpu time spent up to now is        7.8 secs

     total energy              =     -29.78612452 Ry
     Harris-Foulkes estimate   =     -30.01989802 Ry
     estimated scf accuracy    <       0.40497998 Ry

     iteration #  3     ecut=    50.00 Ry     beta=0.20
     Davidson diagonalization with overlap
     ethr =  2.89E-03,  avg # of iterations =  2.0

     negative rho (up, down):  1.532E-04 0.000E+00

     total cpu time spent up to now is       10.0 secs

     total energy              =     -29.95274391 Ry
     Harris-Foulkes estimate   =     -29.91064259 Ry
     estimated scf accuracy    <       0.08689429 Ry

     iteration #  4     ecut=    50.00 Ry     beta=0.20
     Davidson diagonalization with overlap
     ethr =  6.21E-04,  avg # of iterations =  2.0

     negative rho (up, down):  2.162E-05 0.000E+00

     total cpu time spent up to now is       12.2 secs

     total energy              =     -29.85540902 Ry
     Harris-Foulkes estimate   =     -29.96528058 Ry
     estimated scf accuracy    <       0.26770101 Ry

     iteration #  5     ecut=    50.00 Ry     beta=0.20
     Davidson diagonalization with overlap
     ethr =  6.21E-04,  avg # of iterations =  2.0

     negative rho (up, down):  3.595E-06 0.000E+00

     total cpu time spent up to now is       14.4 secs

     total energy              =     -29.88143304 Ry
     Harris-Foulkes estimate   =     -29.88577052 Ry
     estimated scf accuracy    <       0.01369682 Ry

     iteration #  6     ecut=    50.00 Ry     beta=0.20
     Davidson diagonalization with overlap
     ethr =  9.78E-05,  avg # of iterations =  1.0

     negative rho (up, down):  1.599E-06 0.000E+00

     total cpu time spent up to now is       16.4 secs

     total energy              =     -29.88093217 Ry
     Harris-Foulkes estimate   =     -29.88240237 Ry
     estimated scf accuracy    <       0.00336532 Ry

     iteration #  7     ecut=    50.00 Ry     beta=0.20
     Davidson diagonalization with overlap
     ethr =  2.40E-05,  avg # of iterations =  2.0

     negative rho (up, down):  4.456E-08 0.000E+00

     total cpu time spent up to now is       18.5 secs

     total energy              =     -29.88200522 Ry
     Harris-Foulkes estimate   =     -29.88212525 Ry
     estimated scf accuracy    <       0.00027903 Ry

     iteration #  8     ecut=    50.00 Ry     beta=0.20
     Davidson diagonalization with overlap
     ethr =  1.99E-06,  avg # of iterations =  2.0

     negative rho (up, down):  3.660E-08 0.000E+00

     total cpu time spent up to now is       20.7 secs

     total energy              =     -29.88206893 Ry
     Harris-Foulkes estimate   =     -29.88206956 Ry
     estimated scf accuracy    <       0.00001293 Ry

     iteration #  9     ecut=    50.00 Ry     beta=0.20
     Davidson diagonalization with overlap
     ethr =  9.23E-08,  avg # of iterations =  2.0

     total cpu time spent up to now is       22.8 secs

     total energy              =     -29.88207065 Ry
     Harris-Foulkes estimate   =     -29.88207199 Ry
     estimated scf accuracy    <       0.00000763 Ry

     iteration # 10     ecut=    50.00 Ry     beta=0.20
     Davidson diagonalization with overlap
     ethr =  5.45E-08,  avg # of iterations =  2.0

     total cpu time spent up to now is       24.8 secs

     total energy              =     -29.88207099 Ry
     Harris-Foulkes estimate   =     -29.88207311 Ry
     estimated scf accuracy    <       0.00000614 Ry

     iteration # 11     ecut=    50.00 Ry     beta=0.20
     Davidson diagonalization with overlap
     ethr =  4.38E-08,  avg # of iterations =  1.0

     total cpu time spent up to now is       26.5 secs

     total energy              =     -29.88207102 Ry
     Harris-Foulkes estimate   =     -29.88207135 Ry
     estimated scf accuracy    <       0.00000129 Ry

     iteration # 12     ecut=    50.00 Ry     beta=0.20
     Davidson diagonalization with overlap
     ethr =  9.20E-09,  avg # of iterations =  2.0

     total cpu time spent up to now is       27.9 secs

     End of self-consistent calculation

          k = 0.0000 0.0000 0.0000 ( 20170 PWs)   bands (ev):

   -18.1774 -14.7523 -10.2972 -10.0041  -8.6416  -7.8503  -7.5564

     highest occupied level (ev):    -7.5564

!    total energy              =     -29.88207113 Ry
     Harris-Foulkes estimate   =     -29.88207122 Ry
     estimated scf accuracy    <       0.00000013 Ry

     The total energy is the sum of the following terms:

     one-electron contribution =     -87.78754122 Ry
     hartree contribution      =      45.50331595 Ry
     xc contribution           =     -11.25042837 Ry
     ewald contribution        =      23.65258252 Ry

     convergence has been achieved in  12 iterations

     Forces acting on atoms (Ry/au):

     atom    1 type  1   force =    -0.01949569    0.03691288   -0.00229752
     atom    2 type  1   force =     0.00193264    0.03698605   -0.03519168
     atom    3 type  2   force =     0.02240905   -0.04215335   -0.04492637
     atom    4 type  2   force =     0.05012569   -0.00887294    0.02341712
     atom    5 type  2   force =    -0.03395867    0.00586764    0.03572211
     atom    6 type  2   force =     0.01740772   -0.01885002    0.02346597
     atom    7 type  2   force =    -0.03781005   -0.00814867    0.02043980
     atom    8 type  2   force =    -0.00061068   -0.00174160   -0.02062944

     Total force =     0.133457     Total SCF correction =     0.000280


     entering subroutine stress ...

          total   stress  (Ry/bohr**3)                   (kbar)     P=   -3.42
  -0.00004136  -0.00000078  -0.00001743         -6.08     -0.11     -2.56
  -0.00000078  -0.00000735   0.00000959         -0.11     -1.08      1.41
  -0.00001743   0.00000959  -0.00002110         -2.56      1.41     -3.10


     init_run     :      1.94s CPU      2.07s WALL (       1 calls)
     electrons    :     25.26s CPU     25.79s WALL (       1 calls)
     forces       :      0.87s CPU      0.89s WALL (       1 calls)
     stress       :      1.12s CPU      1.16s WALL (       1 calls)

     Called by init_run:
     wfcinit      :      0.21s CPU      0.24s WALL (       1 calls)
     potinit      :      1.37s CPU      1.45s WALL (       1 calls)

     Called by electrons:
     c_bands      :      7.89s CPU      8.01s WALL (      12 calls)
     sum_band     :      2.23s CPU      2.27s WALL (      12 calls)
     v_of_rho     :     14.84s CPU     15.13s WALL (      13 calls)
     mix_rho      :      1.28s CPU      1.38s WALL (      12 calls)

     Called by c_bands:
     init_us_2    :      0.33s CPU      0.35s WALL (      25 calls)
     regterg      :      7.27s CPU      7.37s WALL (      12 calls)

     Called by *egterg:
     h_psi        :      7.01s CPU      7.10s WALL (      41 calls)
     g_psi        :      0.08s CPU      0.08s WALL (      28 calls)
     rdiaghg      :      0.01s CPU      0.01s WALL (      40 calls)

     Called by h_psi:
     add_vuspsi   :      0.10s CPU      0.10s WALL (      41 calls)

     General routines
     calbec       :      0.13s CPU      0.15s WALL (      46 calls)
     fft          :      4.10s CPU      4.21s WALL (     150 calls)
     fftw         :      6.30s CPU      6.35s WALL (     352 calls)

     Parallel routines
     fft_scatter  :      2.65s CPU      2.70s WALL (     502 calls)

     PWSCF        :    29.22s CPU        29.97s WALL


   This run was terminated on:  16:12: 9   4Jul2020            

=------------------------------------------------------------------------------=
   JOB DONE.
=------------------------------------------------------------------------------=
