
     Program PWSCF v.5.1.1 starts on  4Jul2020 at 16:12:16 

     This program is part of the open-source Quantum ESPRESSO suite
     for quantum simulation of materials; please cite
         "P. Giannozzi et al., J. Phys.:Condens. Matter 21 395502 (2009);
          URL http://www.quantum-espresso.org", 
     in publications or presentations arising from this work. More details at
     http://www.quantum-espresso.org/quote

     Parallel version (MPI), running on     1 processors
     Waiting for input...
     Reading input from standard input
Warning: card &IONS ignored
Warning: card / ignored
Warning: card &CELL ignored
Warning: card / ignored

     Current dimensions of program PWSCF are:
     Max number of different atomic species (ntypx) = 10
     Max number of k-points (npk) =  40000
     Max angular momentum in pseudopotentials (lmaxx) =  3

     gamma-point specific algorithms are used

     Subspace diagonalization in iterative solution of the eigenvalue problem:
     a serial algorithm will be used


     G-vector sticks info
     --------------------
     sticks:   dense  smooth     PW     G-vecs:    dense   smooth      PW
     Sum        5689    5689   1433               322453   322453   40339
     Tot        2845    2845    717



     bravais-lattice index     =            1
     lattice parameter (alat)  =      18.8973  a.u.
     unit-cell volume          =    6748.3346 (a.u.)^3
     number of atoms/cell      =            8
     number of atomic types    =            2
     number of electrons       =        14.00
     number of Kohn-Sham states=            7
     kinetic-energy cutoff     =      50.0000  Ry
     charge density cutoff     =     200.0000  Ry
     convergence threshold     =      1.0E-06
     mixing beta               =       0.2000
     number of iterations used =            8  plain     mixing
     Exchange-correlation      = PBE ( 1  4  3  4 0 0)

     celldm(1)=  18.897261  celldm(2)=   0.000000  celldm(3)=   0.000000
     celldm(4)=   0.000000  celldm(5)=   0.000000  celldm(6)=   0.000000

     crystal axes: (cart. coord. in units of alat)
               a(1) = (   1.000000   0.000000   0.000000 )  
               a(2) = (   0.000000   1.000000   0.000000 )  
               a(3) = (   0.000000   0.000000   1.000000 )  

     reciprocal axes: (cart. coord. in units 2 pi/alat)
               b(1) = (  1.000000  0.000000  0.000000 )  
               b(2) = (  0.000000  1.000000  0.000000 )  
               b(3) = (  0.000000  0.000000  1.000000 )  


     PseudoPot. # 1 for C  read from file:
     ../../pseudo-potentials/C_ONCV_PBE-1.0.upf
     MD5 check sum: 40f8c33130f0afa4272e9dcc1c4fb0df
     Pseudo is Norm-conserving, Zval =  4.0
     Generated using ONCVPSP code by D. R. Hamann
     Using radial grid of  602 points,  4 beta functions with: 
                l(1) =   0
                l(2) =   0
                l(3) =   1
                l(4) =   1

     PseudoPot. # 2 for H  read from file:
     ../../pseudo-potentials/H_ONCV_PBE-1.0.upf
     MD5 check sum: 10f92816c437af099bca1a183851adc8
     Pseudo is Norm-conserving, Zval =  1.0
     Generated using ONCVPSP code by D. R. Hamann
     Using radial grid of  602 points,  2 beta functions with: 
                l(1) =   0
                l(2) =   0

     atomic species   valence    mass     pseudopotential
        C              4.00     1.00000     C ( 1.00)
        H              1.00     1.00000     H ( 1.00)

     No symmetry found



   Cartesian axes

     site n.     atom                  positions (alat units)
         1           C   tau(   1) = (   1.7467920   2.1821640   2.0045120  )
         2           C   tau(   2) = (   1.8471880   2.2987200   1.9951640  )
         3           H   tau(   3) = (   1.7784240   2.0903360   1.9479120  )
         4           H   tau(   4) = (   1.6562240   2.2206840   1.9579720  )
         5           H   tau(   5) = (   1.7293040   2.1489280   2.1065640  )
         6           H   tau(   6) = (   1.9385720   2.2753000   1.9384000  )
         7           H   tau(   7) = (   1.8797080   2.3224800   2.0955080  )
         8           H   tau(   8) = (   1.8026720   2.3903760   1.9574760  )

     number of k points=     1
                       cart. coord. in units 2pi/alat
        k(    1) = (   0.0000000   0.0000000   0.0000000), wk =   2.0000000

     Dense  grid:   161227 G-vectors     FFT dimensions: (  90,  90,  90)

     Largest allocated arrays     est. size (Mb)     dimensions
        Kohn-Sham Wavefunctions         2.15 Mb     (   20170,    7)
        NL pseudopotentials             8.62 Mb     (   20170,   28)
        Each V/rho on FFT grid         11.12 Mb     (  729000)
        Each G-vector array             1.23 Mb     (  161227)
        G-vector shells                 0.01 Mb     (    1510)
     Largest temporary arrays     est. size (Mb)     dimensions
        Auxiliary wavefunctions         4.31 Mb     (   20170,   28)
        Each subspace H/S matrix        0.01 Mb     (      28,   28)
        Each <psi_i|beta_j> matrix      0.00 Mb     (      28,    7)
        Arrays for rho mixing          88.99 Mb     (  729000,    8)

     Initial potential from superposition of free atoms
     Check: negative starting charge=   -0.000640

     starting charge   13.97327, renormalised to   14.00000

     negative rho (up, down):  6.417E-04 0.000E+00
     Starting wfc are random

     total cpu time spent up to now is        2.2 secs

     per-process dynamical memory:   141.6 Mb

     Self-consistent Calculation

     iteration #  1     ecut=    50.00 Ry     beta=0.20
     Davidson diagonalization with overlap
     ethr =  1.00E-02,  avg # of iterations =  9.0

     negative rho (up, down):  4.676E-04 0.000E+00

     total cpu time spent up to now is        5.4 secs

     total energy              =     -30.01237862 Ry
     Harris-Foulkes estimate   =     -30.26112652 Ry
     estimated scf accuracy    <       0.96361363 Ry

     iteration #  2     ecut=    50.00 Ry     beta=0.20
     Davidson diagonalization with overlap
     ethr =  6.88E-03,  avg # of iterations =  1.0

     negative rho (up, down):  1.551E-04 0.000E+00

     total cpu time spent up to now is        7.2 secs

     total energy              =     -29.80287096 Ry
     Harris-Foulkes estimate   =     -30.03691413 Ry
     estimated scf accuracy    <       0.41482114 Ry

     iteration #  3     ecut=    50.00 Ry     beta=0.20
     Davidson diagonalization with overlap
     ethr =  2.96E-03,  avg # of iterations =  2.0

     negative rho (up, down):  2.245E-04 0.000E+00

     total cpu time spent up to now is        9.3 secs

     total energy              =     -29.96273009 Ry
     Harris-Foulkes estimate   =     -29.91871682 Ry
     estimated scf accuracy    <       0.07588335 Ry

     iteration #  4     ecut=    50.00 Ry     beta=0.20
     Davidson diagonalization with overlap
     ethr =  5.42E-04,  avg # of iterations =  2.0

     negative rho (up, down):  1.606E-05 0.000E+00

     total cpu time spent up to now is       11.3 secs

     total energy              =     -29.86216363 Ry
     Harris-Foulkes estimate   =     -29.97734407 Ry
     estimated scf accuracy    <       0.26791588 Ry

     iteration #  5     ecut=    50.00 Ry     beta=0.20
     Davidson diagonalization with overlap
     ethr =  5.42E-04,  avg # of iterations =  2.0

     negative rho (up, down):  2.668E-06 0.000E+00

     total cpu time spent up to now is       13.3 secs

     total energy              =     -29.89281741 Ry
     Harris-Foulkes estimate   =     -29.89531504 Ry
     estimated scf accuracy    <       0.00819838 Ry

     iteration #  6     ecut=    50.00 Ry     beta=0.20
     Davidson diagonalization with overlap
     ethr =  5.86E-05,  avg # of iterations =  1.0

     negative rho (up, down):  9.045E-07 0.000E+00

     total cpu time spent up to now is       15.2 secs

     total energy              =     -29.89215433 Ry
     Harris-Foulkes estimate   =     -29.89340676 Ry
     estimated scf accuracy    <       0.00237914 Ry

     iteration #  7     ecut=    50.00 Ry     beta=0.20
     Davidson diagonalization with overlap
     ethr =  1.70E-05,  avg # of iterations =  3.0

     negative rho (up, down):  2.952E-08 0.000E+00

     total cpu time spent up to now is       17.4 secs

     total energy              =     -29.89305855 Ry
     Harris-Foulkes estimate   =     -29.89326772 Ry
     estimated scf accuracy    <       0.00043132 Ry

     iteration #  8     ecut=    50.00 Ry     beta=0.20
     Davidson diagonalization with overlap
     ethr =  3.08E-06,  avg # of iterations =  2.0

     negative rho (up, down):  1.858E-08 0.000E+00

     total cpu time spent up to now is       19.5 secs

     total energy              =     -29.89315150 Ry
     Harris-Foulkes estimate   =     -29.89315113 Ry
     estimated scf accuracy    <       0.00000954 Ry

     iteration #  9     ecut=    50.00 Ry     beta=0.20
     Davidson diagonalization with overlap
     ethr =  6.81E-08,  avg # of iterations =  2.0

     total cpu time spent up to now is       21.6 secs

     total energy              =     -29.89315488 Ry
     Harris-Foulkes estimate   =     -29.89315498 Ry
     estimated scf accuracy    <       0.00000976 Ry

     iteration # 10     ecut=    50.00 Ry     beta=0.20
     Davidson diagonalization with overlap
     ethr =  6.81E-08,  avg # of iterations =  1.0

     total cpu time spent up to now is       23.4 secs

     total energy              =     -29.89315245 Ry
     Harris-Foulkes estimate   =     -29.89315532 Ry
     estimated scf accuracy    <       0.00000808 Ry

     iteration # 11     ecut=    50.00 Ry     beta=0.20
     Davidson diagonalization with overlap
     ethr =  5.77E-08,  avg # of iterations =  1.0

     total cpu time spent up to now is       25.1 secs

     total energy              =     -29.89315309 Ry
     Harris-Foulkes estimate   =     -29.89315300 Ry
     estimated scf accuracy    <       0.00000118 Ry

     iteration # 12     ecut=    50.00 Ry     beta=0.20
     Davidson diagonalization with overlap
     ethr =  8.45E-09,  avg # of iterations =  1.0

     total cpu time spent up to now is       26.7 secs

     total energy              =     -29.89315252 Ry
     Harris-Foulkes estimate   =     -29.89315315 Ry
     estimated scf accuracy    <       0.00000135 Ry

     iteration # 13     ecut=    50.00 Ry     beta=0.20
     Davidson diagonalization with overlap
     ethr =  8.45E-09,  avg # of iterations =  2.0

     total cpu time spent up to now is       28.0 secs

     End of self-consistent calculation

          k = 0.0000 0.0000 0.0000 ( 20170 PWs)   bands (ev):

   -18.2303 -14.7528 -10.3968 -10.1241  -8.6136  -7.7749  -7.7072

     highest occupied level (ev):    -7.7072

!    total energy              =     -29.89315274 Ry
     Harris-Foulkes estimate   =     -29.89315284 Ry
     estimated scf accuracy    <       0.00000012 Ry

     The total energy is the sum of the following terms:

     one-electron contribution =     -88.63085917 Ry
     hartree contribution      =      45.93707520 Ry
     xc contribution           =     -11.30761221 Ry
     ewald contribution        =      24.10824343 Ry

     convergence has been achieved in  13 iterations

     Forces acting on atoms (Ry/au):

     atom    1 type  1   force =     0.01877877   -0.00833719   -0.04306020
     atom    2 type  1   force =     0.01646195   -0.02208600    0.01610169
     atom    3 type  2   force =    -0.00587279    0.02746196    0.00980431
     atom    4 type  2   force =    -0.02200572   -0.01807404    0.00535247
     atom    5 type  2   force =    -0.00841750    0.00449872    0.00938759
     atom    6 type  2   force =    -0.00832298    0.00184246   -0.00317457
     atom    7 type  2   force =     0.01431663    0.00937867    0.01896100
     atom    8 type  2   force =    -0.00493837    0.00531542   -0.01337228

     Total force =     0.078515     Total SCF correction =     0.000411


     entering subroutine stress ...

          total   stress  (Ry/bohr**3)                   (kbar)     P=   -1.99
  -0.00000582   0.00000701   0.00000680         -0.86      1.03      1.00
   0.00000701  -0.00002517   0.00000104          1.03     -3.70      0.15
   0.00000680   0.00000104  -0.00000969          1.00      0.15     -1.43


     init_run     :      2.03s CPU      2.11s WALL (       1 calls)
     electrons    :     25.52s CPU     25.87s WALL (       1 calls)
     forces       :      0.78s CPU      0.78s WALL (       1 calls)
     stress       :      1.05s CPU      1.08s WALL (       1 calls)

     Called by init_run:
     wfcinit      :      0.23s CPU      0.24s WALL (       1 calls)
     potinit      :      1.44s CPU      1.48s WALL (       1 calls)

     Called by electrons:
     c_bands      :      7.92s CPU      8.00s WALL (      13 calls)
     sum_band     :      2.18s CPU      2.18s WALL (      13 calls)
     v_of_rho     :     15.22s CPU     15.46s WALL (      14 calls)
     mix_rho      :      1.26s CPU      1.31s WALL (      13 calls)

     Called by c_bands:
     init_us_2    :      0.35s CPU      0.35s WALL (      27 calls)
     regterg      :      7.26s CPU      7.33s WALL (      13 calls)

     Called by *egterg:
     h_psi        :      7.04s CPU      7.12s WALL (      43 calls)
     g_psi        :      0.09s CPU      0.09s WALL (      29 calls)
     rdiaghg      :      0.01s CPU      0.01s WALL (      42 calls)

     Called by h_psi:
     add_vuspsi   :      0.10s CPU      0.10s WALL (      43 calls)

     General routines
     calbec       :      0.12s CPU      0.12s WALL (      48 calls)
     fft          :      3.95s CPU      4.05s WALL (     161 calls)
     fftw         :      6.38s CPU      6.45s WALL (     374 calls)

     Parallel routines
     fft_scatter  :      2.40s CPU      2.45s WALL (     535 calls)

     PWSCF        :    29.41s CPU        29.90s WALL


   This run was terminated on:  16:12:46   4Jul2020            

=------------------------------------------------------------------------------=
   JOB DONE.
=------------------------------------------------------------------------------=
