
     Program PWSCF v.5.1.1 starts on  4Jul2020 at 16:12:52 

     This program is part of the open-source Quantum ESPRESSO suite
     for quantum simulation of materials; please cite
         "P. Giannozzi et al., J. Phys.:Condens. Matter 21 395502 (2009);
          URL http://www.quantum-espresso.org", 
     in publications or presentations arising from this work. More details at
     http://www.quantum-espresso.org/quote

     Parallel version (MPI), running on     1 processors
     Waiting for input...
     Reading input from standard input
Warning: card &IONS ignored
Warning: card / ignored
Warning: card &CELL ignored
Warning: card / ignored

     Current dimensions of program PWSCF are:
     Max number of different atomic species (ntypx) = 10
     Max number of k-points (npk) =  40000
     Max angular momentum in pseudopotentials (lmaxx) =  3

     gamma-point specific algorithms are used

     Subspace diagonalization in iterative solution of the eigenvalue problem:
     a serial algorithm will be used


     G-vector sticks info
     --------------------
     sticks:   dense  smooth     PW     G-vecs:    dense   smooth      PW
     Sum        5689    5689   1433               322453   322453   40339
     Tot        2845    2845    717



     bravais-lattice index     =            1
     lattice parameter (alat)  =      18.8973  a.u.
     unit-cell volume          =    6748.3346 (a.u.)^3
     number of atoms/cell      =            8
     number of atomic types    =            2
     number of electrons       =        14.00
     number of Kohn-Sham states=            7
     kinetic-energy cutoff     =      50.0000  Ry
     charge density cutoff     =     200.0000  Ry
     convergence threshold     =      1.0E-06
     mixing beta               =       0.2000
     number of iterations used =            8  plain     mixing
     Exchange-correlation      = PBE ( 1  4  3  4 0 0)

     celldm(1)=  18.897261  celldm(2)=   0.000000  celldm(3)=   0.000000
     celldm(4)=   0.000000  celldm(5)=   0.000000  celldm(6)=   0.000000

     crystal axes: (cart. coord. in units of alat)
               a(1) = (   1.000000   0.000000   0.000000 )  
               a(2) = (   0.000000   1.000000   0.000000 )  
               a(3) = (   0.000000   0.000000   1.000000 )  

     reciprocal axes: (cart. coord. in units 2 pi/alat)
               b(1) = (  1.000000  0.000000  0.000000 )  
               b(2) = (  0.000000  1.000000  0.000000 )  
               b(3) = (  0.000000  0.000000  1.000000 )  


     PseudoPot. # 1 for C  read from file:
     ../../pseudo-potentials/C_ONCV_PBE-1.0.upf
     MD5 check sum: 40f8c33130f0afa4272e9dcc1c4fb0df
     Pseudo is Norm-conserving, Zval =  4.0
     Generated using ONCVPSP code by D. R. Hamann
     Using radial grid of  602 points,  4 beta functions with: 
                l(1) =   0
                l(2) =   0
                l(3) =   1
                l(4) =   1

     PseudoPot. # 2 for H  read from file:
     ../../pseudo-potentials/H_ONCV_PBE-1.0.upf
     MD5 check sum: 10f92816c437af099bca1a183851adc8
     Pseudo is Norm-conserving, Zval =  1.0
     Generated using ONCVPSP code by D. R. Hamann
     Using radial grid of  602 points,  2 beta functions with: 
                l(1) =   0
                l(2) =   0

     atomic species   valence    mass     pseudopotential
        C              4.00     1.00000     C ( 1.00)
        H              1.00     1.00000     H ( 1.00)

     No symmetry found



   Cartesian axes

     site n.     atom                  positions (alat units)
         1           C   tau(   1) = (   1.7517280   2.1775640   1.9957520  )
         2           C   tau(   2) = (   1.8408000   2.3029360   2.0057640  )
         3           H   tau(   3) = (   1.8109040   2.0913480   1.9597520  )
         4           H   tau(   4) = (   1.6800040   2.1996800   1.9196240  )
         5           H   tau(   5) = (   1.7117040   2.1517600   2.0877120  )
         6           H   tau(   6) = (   1.8549760   2.3540440   2.1049760  )
         7           H   tau(   7) = (   1.8051800   2.3852200   1.9345000  )
         8           H   tau(   8) = (   1.9394600   2.2706360   1.9753720  )

     number of k points=     1
                       cart. coord. in units 2pi/alat
        k(    1) = (   0.0000000   0.0000000   0.0000000), wk =   2.0000000

     Dense  grid:   161227 G-vectors     FFT dimensions: (  90,  90,  90)

     Largest allocated arrays     est. size (Mb)     dimensions
        Kohn-Sham Wavefunctions         2.15 Mb     (   20170,    7)
        NL pseudopotentials             8.62 Mb     (   20170,   28)
        Each V/rho on FFT grid         11.12 Mb     (  729000)
        Each G-vector array             1.23 Mb     (  161227)
        G-vector shells                 0.01 Mb     (    1510)
     Largest temporary arrays     est. size (Mb)     dimensions
        Auxiliary wavefunctions         4.31 Mb     (   20170,   28)
        Each subspace H/S matrix        0.01 Mb     (      28,   28)
        Each <psi_i|beta_j> matrix      0.00 Mb     (      28,    7)
        Arrays for rho mixing          88.99 Mb     (  729000,    8)

     Initial potential from superposition of free atoms
     Check: negative starting charge=   -0.000639

     starting charge   13.97327, renormalised to   14.00000

     negative rho (up, down):  6.401E-04 0.000E+00
     Starting wfc are random

     total cpu time spent up to now is        2.2 secs

     per-process dynamical memory:   141.6 Mb

     Self-consistent Calculation

     iteration #  1     ecut=    50.00 Ry     beta=0.20
     Davidson diagonalization with overlap
     ethr =  1.00E-02,  avg # of iterations =  9.0

     negative rho (up, down):  4.386E-04 0.000E+00

     total cpu time spent up to now is        5.6 secs

     total energy              =     -30.00232963 Ry
     Harris-Foulkes estimate   =     -30.24724030 Ry
     estimated scf accuracy    <       0.95566448 Ry

     iteration #  2     ecut=    50.00 Ry     beta=0.20
     Davidson diagonalization with overlap
     ethr =  6.83E-03,  avg # of iterations =  1.0

     negative rho (up, down):  1.295E-04 0.000E+00

     total cpu time spent up to now is        7.5 secs

     total energy              =     -29.78149901 Ry
     Harris-Foulkes estimate   =     -30.02842754 Ry
     estimated scf accuracy    <       0.42566727 Ry

     iteration #  3     ecut=    50.00 Ry     beta=0.20
     Davidson diagonalization with overlap
     ethr =  3.04E-03,  avg # of iterations =  2.0

     negative rho (up, down):  1.683E-04 0.000E+00

     total cpu time spent up to now is        9.6 secs

     total energy              =     -29.95364802 Ry
     Harris-Foulkes estimate   =     -29.91065644 Ry
     estimated scf accuracy    <       0.08750457 Ry

     iteration #  4     ecut=    50.00 Ry     beta=0.20
     Davidson diagonalization with overlap
     ethr =  6.25E-04,  avg # of iterations =  2.0

     negative rho (up, down):  2.337E-05 0.000E+00

     total cpu time spent up to now is       11.6 secs

     total energy              =     -29.85813282 Ry
     Harris-Foulkes estimate   =     -29.96619893 Ry
     estimated scf accuracy    <       0.26883603 Ry

     iteration #  5     ecut=    50.00 Ry     beta=0.20
     Davidson diagonalization with overlap
     ethr =  6.25E-04,  avg # of iterations =  2.0

     negative rho (up, down):  3.645E-06 0.000E+00

     total cpu time spent up to now is       13.7 secs

     total energy              =     -29.88092928 Ry
     Harris-Foulkes estimate   =     -29.88641855 Ry
     estimated scf accuracy    <       0.01684484 Ry

     iteration #  6     ecut=    50.00 Ry     beta=0.20
     Davidson diagonalization with overlap
     ethr =  1.20E-04,  avg # of iterations =  1.0

     negative rho (up, down):  1.643E-06 0.000E+00

     total cpu time spent up to now is       15.5 secs

     total energy              =     -29.88036746 Ry
     Harris-Foulkes estimate   =     -29.88208763 Ry
     estimated scf accuracy    <       0.00381602 Ry

     iteration #  7     ecut=    50.00 Ry     beta=0.20
     Davidson diagonalization with overlap
     ethr =  2.73E-05,  avg # of iterations =  3.0

     negative rho (up, down):  4.790E-08 0.000E+00

     total cpu time spent up to now is       17.6 secs

     total energy              =     -29.88162026 Ry
     Harris-Foulkes estimate   =     -29.88171216 Ry
     estimated scf accuracy    <       0.00023423 Ry

     iteration #  8     ecut=    50.00 Ry     beta=0.20
     Davidson diagonalization with overlap
     ethr =  1.67E-06,  avg # of iterations =  2.0

     negative rho (up, down):  1.599E-08 0.000E+00

     total cpu time spent up to now is       19.6 secs

     total energy              =     -29.88166901 Ry
     Harris-Foulkes estimate   =     -29.88166732 Ry
     estimated scf accuracy    <       0.00001293 Ry

     iteration #  9     ecut=    50.00 Ry     beta=0.20
     Davidson diagonalization with overlap
     ethr =  9.23E-08,  avg # of iterations =  2.0

     total cpu time spent up to now is       21.6 secs

     total energy              =     -29.88166824 Ry
     Harris-Foulkes estimate   =     -29.88167015 Ry
     estimated scf accuracy    <       0.00001154 Ry

     iteration # 10     ecut=    50.00 Ry     beta=0.20
     Davidson diagonalization with overlap
     ethr =  8.24E-08,  avg # of iterations =  2.0

     total cpu time spent up to now is       23.6 secs

     total energy              =     -29.88166882 Ry
     Harris-Foulkes estimate   =     -29.88166973 Ry
     estimated scf accuracy    <       0.00000341 Ry

     iteration # 11     ecut=    50.00 Ry     beta=0.20
     Davidson diagonalization with overlap
     ethr =  2.43E-08,  avg # of iterations =  1.0

     total cpu time spent up to now is       25.2 secs

     total energy              =     -29.88166894 Ry
     Harris-Foulkes estimate   =     -29.88166905 Ry
     estimated scf accuracy    <       0.00000125 Ry

     iteration # 12     ecut=    50.00 Ry     beta=0.20
     Davidson diagonalization with overlap
     ethr =  8.96E-09,  avg # of iterations =  1.0

     total cpu time spent up to now is       26.6 secs

     End of self-consistent calculation

          k = 0.0000 0.0000 0.0000 ( 20170 PWs)   bands (ev):

   -18.2764 -14.7298 -10.4474 -10.2392  -8.5536  -7.8452  -7.5902

     highest occupied level (ev):    -7.5902

!    total energy              =     -29.88166839 Ry
     Harris-Foulkes estimate   =     -29.88166900 Ry
     estimated scf accuracy    <       0.00000078 Ry

     The total energy is the sum of the following terms:

     one-electron contribution =     -88.79602466 Ry
     hartree contribution      =      46.02257925 Ry
     xc contribution           =     -11.31661726 Ry
     ewald contribution        =      24.20839428 Ry

     convergence has been achieved in  12 iterations

     Forces acting on atoms (Ry/au):

     atom    1 type  1   force =     0.06863171    0.02805966   -0.05085099
     atom    2 type  1   force =    -0.00081135    0.04413219   -0.01127649
     atom    3 type  2   force =    -0.00526026    0.00731720    0.00457043
     atom    4 type  2   force =    -0.04065717   -0.00971455   -0.01138983
     atom    5 type  2   force =    -0.04899626   -0.02184982    0.06834538
     atom    6 type  2   force =    -0.01722883   -0.02623875   -0.01907152
     atom    7 type  2   force =     0.01972507   -0.03648690    0.02902651
     atom    8 type  2   force =     0.02459710    0.01478098   -0.00935348

     Total force =     0.156557     Total SCF correction =     0.000875


     entering subroutine stress ...

          total   stress  (Ry/bohr**3)                   (kbar)     P=   -1.50
   0.00000777   0.00001258  -0.00001357          1.14      1.85     -2.00
   0.00001258  -0.00003094  -0.00000566          1.85     -4.55     -0.83
  -0.00001357  -0.00000566  -0.00000747         -2.00     -0.83     -1.10


     init_run     :      1.99s CPU      2.14s WALL (       1 calls)
     electrons    :     23.90s CPU     24.44s WALL (       1 calls)
     forces       :      0.88s CPU      0.89s WALL (       1 calls)
     stress       :      1.13s CPU      1.16s WALL (       1 calls)

     Called by init_run:
     wfcinit      :      0.23s CPU      0.26s WALL (       1 calls)
     potinit      :      1.40s CPU      1.49s WALL (       1 calls)

     Called by electrons:
     c_bands      :      7.50s CPU      7.59s WALL (      12 calls)
     sum_band     :      2.07s CPU      2.08s WALL (      12 calls)
     v_of_rho     :     14.19s CPU     14.60s WALL (      13 calls)
     mix_rho      :      1.18s CPU      1.25s WALL (      12 calls)

     Called by c_bands:
     init_us_2    :      0.33s CPU      0.35s WALL (      25 calls)
     regterg      :      6.88s CPU      6.96s WALL (      12 calls)

     Called by *egterg:
     h_psi        :      6.69s CPU      6.74s WALL (      41 calls)
     g_psi        :      0.08s CPU      0.08s WALL (      28 calls)
     rdiaghg      :      0.01s CPU      0.01s WALL (      40 calls)

     Called by h_psi:
     add_vuspsi   :      0.09s CPU      0.09s WALL (      41 calls)

     General routines
     calbec       :      0.12s CPU      0.13s WALL (      46 calls)
     fft          :      3.75s CPU      3.88s WALL (     150 calls)
     fftw         :      6.03s CPU      6.06s WALL (     344 calls)

     Parallel routines
     fft_scatter  :      2.30s CPU      2.36s WALL (     494 calls)

     PWSCF        :    27.93s CPU        28.70s WALL


   This run was terminated on:  16:13:21   4Jul2020            

=------------------------------------------------------------------------------=
   JOB DONE.
=------------------------------------------------------------------------------=
