
     Program PWSCF v.5.1.1 starts on  4Jul2020 at 16:12:52 

     This program is part of the open-source Quantum ESPRESSO suite
     for quantum simulation of materials; please cite
         "P. Giannozzi et al., J. Phys.:Condens. Matter 21 395502 (2009);
          URL http://www.quantum-espresso.org", 
     in publications or presentations arising from this work. More details at
     http://www.quantum-espresso.org/quote

     Parallel version (MPI), running on     1 processors
     Waiting for input...
     Reading input from standard input
Warning: card &IONS ignored
Warning: card / ignored
Warning: card &CELL ignored
Warning: card / ignored

     Current dimensions of program PWSCF are:
     Max number of different atomic species (ntypx) = 10
     Max number of k-points (npk) =  40000
     Max angular momentum in pseudopotentials (lmaxx) =  3

     gamma-point specific algorithms are used

     Subspace diagonalization in iterative solution of the eigenvalue problem:
     a serial algorithm will be used


     G-vector sticks info
     --------------------
     sticks:   dense  smooth     PW     G-vecs:    dense   smooth      PW
     Sum        5689    5689   1433               322453   322453   40339
     Tot        2845    2845    717



     bravais-lattice index     =            1
     lattice parameter (alat)  =      18.8973  a.u.
     unit-cell volume          =    6748.3346 (a.u.)^3
     number of atoms/cell      =            8
     number of atomic types    =            2
     number of electrons       =        14.00
     number of Kohn-Sham states=            7
     kinetic-energy cutoff     =      50.0000  Ry
     charge density cutoff     =     200.0000  Ry
     convergence threshold     =      1.0E-06
     mixing beta               =       0.2000
     number of iterations used =            8  plain     mixing
     Exchange-correlation      = PBE ( 1  4  3  4 0 0)

     celldm(1)=  18.897261  celldm(2)=   0.000000  celldm(3)=   0.000000
     celldm(4)=   0.000000  celldm(5)=   0.000000  celldm(6)=   0.000000

     crystal axes: (cart. coord. in units of alat)
               a(1) = (   1.000000   0.000000   0.000000 )  
               a(2) = (   0.000000   1.000000   0.000000 )  
               a(3) = (   0.000000   0.000000   1.000000 )  

     reciprocal axes: (cart. coord. in units 2 pi/alat)
               b(1) = (  1.000000  0.000000  0.000000 )  
               b(2) = (  0.000000  1.000000  0.000000 )  
               b(3) = (  0.000000  0.000000  1.000000 )  


     PseudoPot. # 1 for C  read from file:
     ../../pseudo-potentials/C_ONCV_PBE-1.0.upf
     MD5 check sum: 40f8c33130f0afa4272e9dcc1c4fb0df
     Pseudo is Norm-conserving, Zval =  4.0
     Generated using ONCVPSP code by D. R. Hamann
     Using radial grid of  602 points,  4 beta functions with: 
                l(1) =   0
                l(2) =   0
                l(3) =   1
                l(4) =   1

     PseudoPot. # 2 for H  read from file:
     ../../pseudo-potentials/H_ONCV_PBE-1.0.upf
     MD5 check sum: 10f92816c437af099bca1a183851adc8
     Pseudo is Norm-conserving, Zval =  1.0
     Generated using ONCVPSP code by D. R. Hamann
     Using radial grid of  602 points,  2 beta functions with: 
                l(1) =   0
                l(2) =   0

     atomic species   valence    mass     pseudopotential
        C              4.00     1.00000     C ( 1.00)
        H              1.00     1.00000     H ( 1.00)

     No symmetry found



   Cartesian axes

     site n.     atom                  positions (alat units)
         1           C   tau(   1) = (   1.7485320   2.1795200   1.9977440  )
         2           C   tau(   2) = (   1.8444600   2.3015080   2.0035280  )
         3           H   tau(   3) = (   1.6887600   2.1712120   2.0839840  )
         4           H   tau(   4) = (   1.7969480   2.0890160   1.9758760  )
         5           H   tau(   5) = (   1.6900920   2.1854760   1.9090040  )
         6           H   tau(   6) = (   1.9510120   2.2799440   1.9891160  )
         7           H   tau(   7) = (   1.8446080   2.3478360   2.1042160  )
         8           H   tau(   8) = (   1.8251920   2.3729280   1.9226760  )

     number of k points=     1
                       cart. coord. in units 2pi/alat
        k(    1) = (   0.0000000   0.0000000   0.0000000), wk =   2.0000000

     Dense  grid:   161227 G-vectors     FFT dimensions: (  90,  90,  90)

     Largest allocated arrays     est. size (Mb)     dimensions
        Kohn-Sham Wavefunctions         2.15 Mb     (   20170,    7)
        NL pseudopotentials             8.62 Mb     (   20170,   28)
        Each V/rho on FFT grid         11.12 Mb     (  729000)
        Each G-vector array             1.23 Mb     (  161227)
        G-vector shells                 0.01 Mb     (    1510)
     Largest temporary arrays     est. size (Mb)     dimensions
        Auxiliary wavefunctions         4.31 Mb     (   20170,   28)
        Each subspace H/S matrix        0.01 Mb     (      28,   28)
        Each <psi_i|beta_j> matrix      0.00 Mb     (      28,    7)
        Arrays for rho mixing          88.99 Mb     (  729000,    8)

     Initial potential from superposition of free atoms
     Check: negative starting charge=   -0.000635

     starting charge   13.97327, renormalised to   14.00000

     negative rho (up, down):  6.359E-04 0.000E+00
     Starting wfc are random

     total cpu time spent up to now is        2.0 secs

     per-process dynamical memory:   141.6 Mb

     Self-consistent Calculation

     iteration #  1     ecut=    50.00 Ry     beta=0.20
     Davidson diagonalization with overlap
     ethr =  1.00E-02,  avg # of iterations =  9.0

     negative rho (up, down):  4.579E-04 0.000E+00

     total cpu time spent up to now is        5.3 secs

     total energy              =     -30.01071820 Ry
     Harris-Foulkes estimate   =     -30.26473865 Ry
     estimated scf accuracy    <       0.98932215 Ry

     iteration #  2     ecut=    50.00 Ry     beta=0.20
     Davidson diagonalization with overlap
     ethr =  7.07E-03,  avg # of iterations =  1.0

     negative rho (up, down):  1.388E-04 0.000E+00

     total cpu time spent up to now is        7.1 secs

     total energy              =     -29.78526961 Ry
     Harris-Foulkes estimate   =     -30.03762876 Ry
     estimated scf accuracy    <       0.43783089 Ry

     iteration #  3     ecut=    50.00 Ry     beta=0.20
     Davidson diagonalization with overlap
     ethr =  3.13E-03,  avg # of iterations =  2.0

     negative rho (up, down):  1.910E-04 0.000E+00

     total cpu time spent up to now is        9.2 secs

     total energy              =     -29.94910792 Ry
     Harris-Foulkes estimate   =     -29.90895145 Ry
     estimated scf accuracy    <       0.07790840 Ry

     iteration #  4     ecut=    50.00 Ry     beta=0.20
     Davidson diagonalization with overlap
     ethr =  5.56E-04,  avg # of iterations =  2.0

     negative rho (up, down):  1.946E-05 0.000E+00

     total cpu time spent up to now is       11.2 secs

     total energy              =     -29.85683762 Ry
     Harris-Foulkes estimate   =     -29.96119997 Ry
     estimated scf accuracy    <       0.24696744 Ry

     iteration #  5     ecut=    50.00 Ry     beta=0.20
     Davidson diagonalization with overlap
     ethr =  5.56E-04,  avg # of iterations =  2.0

     negative rho (up, down):  5.265E-06 0.000E+00

     total cpu time spent up to now is       13.2 secs

     total energy              =     -29.88379458 Ry
     Harris-Foulkes estimate   =     -29.88551913 Ry
     estimated scf accuracy    <       0.01088871 Ry

     iteration #  6     ecut=    50.00 Ry     beta=0.20
     Davidson diagonalization with overlap
     ethr =  7.78E-05,  avg # of iterations =  1.0

     negative rho (up, down):  1.128E-06 0.000E+00

     total cpu time spent up to now is       15.0 secs

     total energy              =     -29.88069043 Ry
     Harris-Foulkes estimate   =     -29.88413488 Ry
     estimated scf accuracy    <       0.00669408 Ry

     iteration #  7     ecut=    50.00 Ry     beta=0.20
     Davidson diagonalization with overlap
     ethr =  4.78E-05,  avg # of iterations =  2.0

     negative rho (up, down):  6.649E-08 0.000E+00

     total cpu time spent up to now is       17.1 secs

     total energy              =     -29.88246037 Ry
     Harris-Foulkes estimate   =     -29.88255530 Ry
     estimated scf accuracy    <       0.00025596 Ry

     iteration #  8     ecut=    50.00 Ry     beta=0.20
     Davidson diagonalization with overlap
     ethr =  1.83E-06,  avg # of iterations =  2.0

     negative rho (up, down):  9.642E-08 0.000E+00

     total cpu time spent up to now is       19.1 secs

     total energy              =     -29.88249771 Ry
     Harris-Foulkes estimate   =     -29.88250736 Ry
     estimated scf accuracy    <       0.00003237 Ry

     iteration #  9     ecut=    50.00 Ry     beta=0.20
     Davidson diagonalization with overlap
     ethr =  2.31E-07,  avg # of iterations =  2.0

     total cpu time spent up to now is       21.1 secs

     total energy              =     -29.88250090 Ry
     Harris-Foulkes estimate   =     -29.88250334 Ry
     estimated scf accuracy    <       0.00000898 Ry

     iteration # 10     ecut=    50.00 Ry     beta=0.20
     Davidson diagonalization with overlap
     ethr =  6.41E-08,  avg # of iterations =  2.0

     total cpu time spent up to now is       22.9 secs

     End of self-consistent calculation

          k = 0.0000 0.0000 0.0000 ( 20170 PWs)   bands (ev):

   -18.2347 -15.0257 -10.5580  -9.9275  -8.6447  -8.1376  -7.5023

     highest occupied level (ev):    -7.5023

!    total energy              =     -29.88250167 Ry
     Harris-Foulkes estimate   =     -29.88250181 Ry
     estimated scf accuracy    <       0.00000051 Ry

     The total energy is the sum of the following terms:

     one-electron contribution =     -89.05090988 Ry
     hartree contribution      =      46.15330810 Ry
     xc contribution           =     -11.36477429 Ry
     ewald contribution        =      24.37987441 Ry

     convergence has been achieved in  10 iterations

     Forces acting on atoms (Ry/au):

     atom    1 type  1   force =     0.04755189    0.06037754   -0.03529165
     atom    2 type  1   force =     0.01314778   -0.00956219    0.01460715
     atom    3 type  2   force =    -0.03473415   -0.00725948    0.04142127
     atom    4 type  2   force =     0.04624593   -0.06002751    0.01378184
     atom    5 type  2   force =    -0.04648118    0.01912691   -0.02607416
     atom    6 type  2   force =     0.00238153   -0.02291362   -0.00285861
     atom    7 type  2   force =    -0.01380952    0.00855721   -0.01858380
     atom    8 type  2   force =    -0.01430227    0.01170114    0.01299796

     Total force =     0.146292     Total SCF correction =     0.000485


     entering subroutine stress ...

          total   stress  (Ry/bohr**3)                   (kbar)     P=   -0.30
   0.00000185  -0.00001988  -0.00000065          0.27     -2.92     -0.10
  -0.00001988   0.00000099  -0.00000225         -2.92      0.15     -0.33
  -0.00000065  -0.00000225  -0.00000897         -0.10     -0.33     -1.32


     init_run     :      1.85s CPU      1.93s WALL (       1 calls)
     electrons    :     20.68s CPU     20.96s WALL (       1 calls)
     forces       :      1.08s CPU      1.09s WALL (       1 calls)
     stress       :      1.42s CPU      1.47s WALL (       1 calls)

     Called by init_run:
     wfcinit      :      0.19s CPU      0.21s WALL (       1 calls)
     potinit      :      1.32s CPU      1.36s WALL (       1 calls)

     Called by electrons:
     c_bands      :      6.38s CPU      6.42s WALL (      10 calls)
     sum_band     :      1.77s CPU      1.78s WALL (      10 calls)
     v_of_rho     :     12.64s CPU     12.83s WALL (      11 calls)
     mix_rho      :      0.89s CPU      0.95s WALL (      10 calls)

     Called by c_bands:
     init_us_2    :      0.28s CPU      0.28s WALL (      21 calls)
     regterg      :      5.86s CPU      5.90s WALL (      10 calls)

     Called by *egterg:
     h_psi        :      5.67s CPU      5.70s WALL (      36 calls)
     g_psi        :      0.07s CPU      0.08s WALL (      25 calls)
     rdiaghg      :      0.01s CPU      0.01s WALL (      35 calls)

     Called by h_psi:
     add_vuspsi   :      0.08s CPU      0.08s WALL (      36 calls)

     General routines
     calbec       :      0.11s CPU      0.11s WALL (      41 calls)
     fft          :      3.46s CPU      3.53s WALL (     128 calls)
     fftw         :      5.16s CPU      5.19s WALL (     304 calls)

     Parallel routines
     fft_scatter  :      2.05s CPU      2.09s WALL (     432 calls)

     PWSCF        :    25.08s CPU        25.50s WALL


   This run was terminated on:  16:13:17   4Jul2020            

=------------------------------------------------------------------------------=
   JOB DONE.
=------------------------------------------------------------------------------=
