
     Program PWSCF v.5.1.1 starts on  4Jul2020 at 17:31:54 

     This program is part of the open-source Quantum ESPRESSO suite
     for quantum simulation of materials; please cite
         "P. Giannozzi et al., J. Phys.:Condens. Matter 21 395502 (2009);
          URL http://www.quantum-espresso.org", 
     in publications or presentations arising from this work. More details at
     http://www.quantum-espresso.org/quote

     Parallel version (MPI), running on     1 processors
     Waiting for input...
     Reading input from standard input
Warning: card &IONS ignored
Warning: card / ignored
Warning: card &CELL ignored
Warning: card / ignored

     Current dimensions of program PWSCF are:
     Max number of different atomic species (ntypx) = 10
     Max number of k-points (npk) =  40000
     Max angular momentum in pseudopotentials (lmaxx) =  3

     gamma-point specific algorithms are used

     Subspace diagonalization in iterative solution of the eigenvalue problem:
     a serial algorithm will be used


     G-vector sticks info
     --------------------
     sticks:   dense  smooth     PW     G-vecs:    dense   smooth      PW
     Sum        5689    5689   1433               322453   322453   40339
     Tot        2845    2845    717



     bravais-lattice index     =            1
     lattice parameter (alat)  =      18.8973  a.u.
     unit-cell volume          =    6748.3346 (a.u.)^3
     number of atoms/cell      =            8
     number of atomic types    =            2
     number of electrons       =        14.00
     number of Kohn-Sham states=            7
     kinetic-energy cutoff     =      50.0000  Ry
     charge density cutoff     =     200.0000  Ry
     convergence threshold     =      1.0E-06
     mixing beta               =       0.2000
     number of iterations used =            8  plain     mixing
     Exchange-correlation      = PBE ( 1  4  3  4 0 0)

     celldm(1)=  18.897261  celldm(2)=   0.000000  celldm(3)=   0.000000
     celldm(4)=   0.000000  celldm(5)=   0.000000  celldm(6)=   0.000000

     crystal axes: (cart. coord. in units of alat)
               a(1) = (   1.000000   0.000000   0.000000 )  
               a(2) = (   0.000000   1.000000   0.000000 )  
               a(3) = (   0.000000   0.000000   1.000000 )  

     reciprocal axes: (cart. coord. in units 2 pi/alat)
               b(1) = (  1.000000  0.000000  0.000000 )  
               b(2) = (  0.000000  1.000000  0.000000 )  
               b(3) = (  0.000000  0.000000  1.000000 )  


     PseudoPot. # 1 for C  read from file:
     ../../pseudo-potentials/C_ONCV_PBE-1.0.upf
     MD5 check sum: 40f8c33130f0afa4272e9dcc1c4fb0df
     Pseudo is Norm-conserving, Zval =  4.0
     Generated using ONCVPSP code by D. R. Hamann
     Using radial grid of  602 points,  4 beta functions with: 
                l(1) =   0
                l(2) =   0
                l(3) =   1
                l(4) =   1

     PseudoPot. # 2 for H  read from file:
     ../../pseudo-potentials/H_ONCV_PBE-1.0.upf
     MD5 check sum: 10f92816c437af099bca1a183851adc8
     Pseudo is Norm-conserving, Zval =  1.0
     Generated using ONCVPSP code by D. R. Hamann
     Using radial grid of  602 points,  2 beta functions with: 
                l(1) =   0
                l(2) =   0

     atomic species   valence    mass     pseudopotential
        C              4.00     1.00000     C ( 1.00)
        H              1.00     1.00000     H ( 1.00)

     No symmetry found



   Cartesian axes

     site n.     atom                  positions (alat units)
         1           C   tau(   1) = (   1.7450960   2.1810400   1.9945360  )
         2           C   tau(   2) = (   1.8480600   2.2998760   2.0050920  )
         3           H   tau(   3) = (   1.7742720   2.0793120   2.0388600  )
         4           H   tau(   4) = (   1.7380840   2.1570800   1.8885120  )
         5           H   tau(   5) = (   1.6489640   2.2122160   2.0344800  )
         6           H   tau(   6) = (   1.9467600   2.2777800   2.0481080  )
         7           H   tau(   7) = (   1.8223040   2.3734880   2.0826880  )
         8           H   tau(   8) = (   1.8642880   2.3478640   1.9117680  )

     number of k points=     1
                       cart. coord. in units 2pi/alat
        k(    1) = (   0.0000000   0.0000000   0.0000000), wk =   2.0000000

     Dense  grid:   161227 G-vectors     FFT dimensions: (  90,  90,  90)

     Largest allocated arrays     est. size (Mb)     dimensions
        Kohn-Sham Wavefunctions         2.15 Mb     (   20170,    7)
        NL pseudopotentials             8.62 Mb     (   20170,   28)
        Each V/rho on FFT grid         11.12 Mb     (  729000)
        Each G-vector array             1.23 Mb     (  161227)
        G-vector shells                 0.01 Mb     (    1510)
     Largest temporary arrays     est. size (Mb)     dimensions
        Auxiliary wavefunctions         4.31 Mb     (   20170,   28)
        Each subspace H/S matrix        0.01 Mb     (      28,   28)
        Each <psi_i|beta_j> matrix      0.00 Mb     (      28,    7)
        Arrays for rho mixing          88.99 Mb     (  729000,    8)

     Initial potential from superposition of free atoms
     Check: negative starting charge=   -0.000634

     starting charge   13.97327, renormalised to   14.00000

     negative rho (up, down):  6.355E-04 0.000E+00
     Starting wfc are random

     total cpu time spent up to now is        2.0 secs

     per-process dynamical memory:   141.6 Mb

     Self-consistent Calculation

     iteration #  1     ecut=    50.00 Ry     beta=0.20
     Davidson diagonalization with overlap
     ethr =  1.00E-02,  avg # of iterations =  9.0

     negative rho (up, down):  4.711E-04 0.000E+00

     total cpu time spent up to now is        5.8 secs

     total energy              =     -29.99446432 Ry
     Harris-Foulkes estimate   =     -30.24000823 Ry
     estimated scf accuracy    <       0.94918440 Ry

     iteration #  2     ecut=    50.00 Ry     beta=0.20
     Davidson diagonalization with overlap
     ethr =  6.78E-03,  avg # of iterations =  1.0

     negative rho (up, down):  1.657E-04 0.000E+00

     total cpu time spent up to now is        7.8 secs

     total energy              =     -29.80208244 Ry
     Harris-Foulkes estimate   =     -30.01942683 Ry
     estimated scf accuracy    <       0.39601012 Ry

     iteration #  3     ecut=    50.00 Ry     beta=0.20
     Davidson diagonalization with overlap
     ethr =  2.83E-03,  avg # of iterations =  2.0

     negative rho (up, down):  3.038E-04 0.000E+00

     total cpu time spent up to now is       10.0 secs

     total energy              =     -29.96128250 Ry
     Harris-Foulkes estimate   =     -29.90500826 Ry
     estimated scf accuracy    <       0.06918967 Ry

     iteration #  4     ecut=    50.00 Ry     beta=0.20
     Davidson diagonalization with overlap
     ethr =  4.94E-04,  avg # of iterations =  2.0

     negative rho (up, down):  1.023E-05 0.000E+00

     total cpu time spent up to now is       12.3 secs

     total energy              =     -29.83414096 Ry
     Harris-Foulkes estimate   =     -29.98449080 Ry
     estimated scf accuracy    <       0.32966643 Ry

     iteration #  5     ecut=    50.00 Ry     beta=0.20
     Davidson diagonalization with overlap
     ethr =  4.94E-04,  avg # of iterations =  3.0

     negative rho (up, down):  2.752E-06 0.000E+00

     total cpu time spent up to now is       14.6 secs

     total energy              =     -29.88147187 Ry
     Harris-Foulkes estimate   =     -29.88214881 Ry
     estimated scf accuracy    <       0.00336437 Ry

     iteration #  6     ecut=    50.00 Ry     beta=0.20
     Davidson diagonalization with overlap
     ethr =  2.40E-05,  avg # of iterations =  2.0

     negative rho (up, down):  5.562E-07 0.000E+00

     total cpu time spent up to now is       16.7 secs

     total energy              =     -29.88093571 Ry
     Harris-Foulkes estimate   =     -29.88174202 Ry
     estimated scf accuracy    <       0.00158629 Ry

     iteration #  7     ecut=    50.00 Ry     beta=0.20
     Davidson diagonalization with overlap
     ethr =  1.13E-05,  avg # of iterations =  2.0

     negative rho (up, down):  2.787E-08 0.000E+00

     total cpu time spent up to now is       18.9 secs

     total energy              =     -29.88137143 Ry
     Harris-Foulkes estimate   =     -29.88139854 Ry
     estimated scf accuracy    <       0.00007145 Ry

     iteration #  8     ecut=    50.00 Ry     beta=0.20
     Davidson diagonalization with overlap
     ethr =  5.10E-07,  avg # of iterations =  2.0

     negative rho (up, down):  2.366E-08 0.000E+00

     total cpu time spent up to now is       21.1 secs

     total energy              =     -29.88138431 Ry
     Harris-Foulkes estimate   =     -29.88138793 Ry
     estimated scf accuracy    <       0.00001130 Ry

     iteration #  9     ecut=    50.00 Ry     beta=0.20
     Davidson diagonalization with overlap
     ethr =  8.07E-08,  avg # of iterations =  2.0

     total cpu time spent up to now is       23.3 secs

     total energy              =     -29.88138617 Ry
     Harris-Foulkes estimate   =     -29.88138634 Ry
     estimated scf accuracy    <       0.00000227 Ry

     iteration # 10     ecut=    50.00 Ry     beta=0.20
     Davidson diagonalization with overlap
     ethr =  1.62E-08,  avg # of iterations =  2.0

     total cpu time spent up to now is       25.3 secs

     total energy              =     -29.88138613 Ry
     Harris-Foulkes estimate   =     -29.88138647 Ry
     estimated scf accuracy    <       0.00000118 Ry

     iteration # 11     ecut=    50.00 Ry     beta=0.20
     Davidson diagonalization with overlap
     ethr =  8.41E-09,  avg # of iterations =  2.0

     total cpu time spent up to now is       26.8 secs

     End of self-consistent calculation

          k = 0.0000 0.0000 0.0000 ( 20170 PWs)   bands (ev):

   -18.0553 -14.9631 -10.3769  -9.8868  -8.6109  -7.9730  -7.5703

     highest occupied level (ev):    -7.5703

!    total energy              =     -29.88138600 Ry
     Harris-Foulkes estimate   =     -29.88138622 Ry
     estimated scf accuracy    <       0.00000027 Ry

     The total energy is the sum of the following terms:

     one-electron contribution =     -87.45097881 Ry
     hartree contribution      =      45.33409731 Ry
     xc contribution           =     -11.26579382 Ry
     ewald contribution        =      23.50128932 Ry

     convergence has been achieved in  11 iterations

     Forces acting on atoms (Ry/au):

     atom    1 type  1   force =     0.05763175   -0.01583947    0.00431779
     atom    2 type  1   force =    -0.00243679   -0.03627400    0.07763381
     atom    3 type  2   force =    -0.00398959    0.05680301   -0.00059040
     atom    4 type  2   force =    -0.01822528    0.00092670   -0.01088424
     atom    5 type  2   force =    -0.01159245   -0.00505982   -0.00159182
     atom    6 type  2   force =     0.00772085   -0.03194564   -0.01891189
     atom    7 type  2   force =    -0.02965504    0.00851735   -0.01391017
     atom    8 type  2   force =     0.00054654    0.02287188   -0.03606309

     Total force =     0.138578     Total SCF correction =     0.000598


     entering subroutine stress ...

          total   stress  (Ry/bohr**3)                   (kbar)     P=   -3.06
  -0.00001526  -0.00001209  -0.00000269         -2.24     -1.78     -0.40
  -0.00001209  -0.00003787  -0.00000277         -1.78     -5.57     -0.41
  -0.00000269  -0.00000277  -0.00000922         -0.40     -0.41     -1.36


     init_run     :      1.90s CPU      1.95s WALL (       1 calls)
     electrons    :     24.43s CPU     24.80s WALL (       1 calls)
     forces       :      0.95s CPU      0.95s WALL (       1 calls)
     stress       :      1.18s CPU      1.22s WALL (       1 calls)

     Called by init_run:
     wfcinit      :      0.24s CPU      0.24s WALL (       1 calls)
     potinit      :      1.32s CPU      1.35s WALL (       1 calls)

     Called by electrons:
     c_bands      :      8.63s CPU      8.72s WALL (      11 calls)
     sum_band     :      2.37s CPU      2.39s WALL (      11 calls)
     v_of_rho     :     12.98s CPU     13.17s WALL (      12 calls)
     mix_rho      :      1.40s CPU      1.47s WALL (      11 calls)

     Called by c_bands:
     init_us_2    :      0.31s CPU      0.31s WALL (      23 calls)
     regterg      :      8.09s CPU      8.17s WALL (      11 calls)

     Called by *egterg:
     h_psi        :      7.80s CPU      7.86s WALL (      41 calls)
     g_psi        :      0.08s CPU      0.08s WALL (      29 calls)
     rdiaghg      :      0.01s CPU      0.01s WALL (      40 calls)

     Called by h_psi:
     add_vuspsi   :      0.13s CPU      0.13s WALL (      41 calls)

     General routines
     calbec       :      0.15s CPU      0.16s WALL (      46 calls)
     fft          :      3.74s CPU      3.83s WALL (     139 calls)
     fftw         :      6.65s CPU      6.69s WALL (     336 calls)

     Parallel routines
     fft_scatter  :      2.78s CPU      2.82s WALL (     475 calls)

     PWSCF        :    28.49s CPU        28.96s WALL


   This run was terminated on:  17:32:23   4Jul2020            

=------------------------------------------------------------------------------=
   JOB DONE.
=------------------------------------------------------------------------------=
