
     Program PWSCF v.5.1.1 starts on  4Jul2020 at 17:33: 8 

     This program is part of the open-source Quantum ESPRESSO suite
     for quantum simulation of materials; please cite
         "P. Giannozzi et al., J. Phys.:Condens. Matter 21 395502 (2009);
          URL http://www.quantum-espresso.org", 
     in publications or presentations arising from this work. More details at
     http://www.quantum-espresso.org/quote

     Parallel version (MPI), running on     1 processors
     Waiting for input...
     Reading input from standard input
Warning: card &IONS ignored
Warning: card / ignored
Warning: card &CELL ignored
Warning: card / ignored

     Current dimensions of program PWSCF are:
     Max number of different atomic species (ntypx) = 10
     Max number of k-points (npk) =  40000
     Max angular momentum in pseudopotentials (lmaxx) =  3

     gamma-point specific algorithms are used

     Subspace diagonalization in iterative solution of the eigenvalue problem:
     a serial algorithm will be used


     G-vector sticks info
     --------------------
     sticks:   dense  smooth     PW     G-vecs:    dense   smooth      PW
     Sum        5689    5689   1433               322453   322453   40339
     Tot        2845    2845    717



     bravais-lattice index     =            1
     lattice parameter (alat)  =      18.8973  a.u.
     unit-cell volume          =    6748.3346 (a.u.)^3
     number of atoms/cell      =            8
     number of atomic types    =            2
     number of electrons       =        14.00
     number of Kohn-Sham states=            7
     kinetic-energy cutoff     =      50.0000  Ry
     charge density cutoff     =     200.0000  Ry
     convergence threshold     =      1.0E-06
     mixing beta               =       0.2000
     number of iterations used =            8  plain     mixing
     Exchange-correlation      = PBE ( 1  4  3  4 0 0)

     celldm(1)=  18.897261  celldm(2)=   0.000000  celldm(3)=   0.000000
     celldm(4)=   0.000000  celldm(5)=   0.000000  celldm(6)=   0.000000

     crystal axes: (cart. coord. in units of alat)
               a(1) = (   1.000000   0.000000   0.000000 )  
               a(2) = (   0.000000   1.000000   0.000000 )  
               a(3) = (   0.000000   0.000000   1.000000 )  

     reciprocal axes: (cart. coord. in units 2 pi/alat)
               b(1) = (  1.000000  0.000000  0.000000 )  
               b(2) = (  0.000000  1.000000  0.000000 )  
               b(3) = (  0.000000  0.000000  1.000000 )  


     PseudoPot. # 1 for C  read from file:
     ../../pseudo-potentials/C_ONCV_PBE-1.0.upf
     MD5 check sum: 40f8c33130f0afa4272e9dcc1c4fb0df
     Pseudo is Norm-conserving, Zval =  4.0
     Generated using ONCVPSP code by D. R. Hamann
     Using radial grid of  602 points,  4 beta functions with: 
                l(1) =   0
                l(2) =   0
                l(3) =   1
                l(4) =   1

     PseudoPot. # 2 for H  read from file:
     ../../pseudo-potentials/H_ONCV_PBE-1.0.upf
     MD5 check sum: 10f92816c437af099bca1a183851adc8
     Pseudo is Norm-conserving, Zval =  1.0
     Generated using ONCVPSP code by D. R. Hamann
     Using radial grid of  602 points,  2 beta functions with: 
                l(1) =   0
                l(2) =   0

     atomic species   valence    mass     pseudopotential
        C              4.00     1.00000     C ( 1.00)
        H              1.00     1.00000     H ( 1.00)

     No symmetry found



   Cartesian axes

     site n.     atom                  positions (alat units)
         1           C   tau(   1) = (   1.7454080   2.1859880   1.9869720  )
         2           C   tau(   2) = (   1.8518080   2.2932320   2.0142880  )
         3           H   tau(   3) = (   1.7614560   2.0995400   1.9220080  )
         4           H   tau(   4) = (   1.6753920   2.2499000   1.9279280  )
         5           H   tau(   5) = (   1.6639520   2.1599040   2.0605680  )
         6           H   tau(   6) = (   1.8174440   2.3684280   2.0880480  )
         7           H   tau(   7) = (   1.8836360   2.3386320   1.9210720  )
         8           H   tau(   8) = (   1.9444400   2.2515400   2.0653360  )

     number of k points=     1
                       cart. coord. in units 2pi/alat
        k(    1) = (   0.0000000   0.0000000   0.0000000), wk =   2.0000000

     Dense  grid:   161227 G-vectors     FFT dimensions: (  90,  90,  90)

     Largest allocated arrays     est. size (Mb)     dimensions
        Kohn-Sham Wavefunctions         2.15 Mb     (   20170,    7)
        NL pseudopotentials             8.62 Mb     (   20170,   28)
        Each V/rho on FFT grid         11.12 Mb     (  729000)
        Each G-vector array             1.23 Mb     (  161227)
        G-vector shells                 0.01 Mb     (    1510)
     Largest temporary arrays     est. size (Mb)     dimensions
        Auxiliary wavefunctions         4.31 Mb     (   20170,   28)
        Each subspace H/S matrix        0.01 Mb     (      28,   28)
        Each <psi_i|beta_j> matrix      0.00 Mb     (      28,    7)
        Arrays for rho mixing          88.99 Mb     (  729000,    8)

     Initial potential from superposition of free atoms
     Check: negative starting charge=   -0.000639

     starting charge   13.97327, renormalised to   14.00000

     negative rho (up, down):  6.401E-04 0.000E+00
     Starting wfc are random

     total cpu time spent up to now is        2.2 secs

     per-process dynamical memory:   141.6 Mb

     Self-consistent Calculation

     iteration #  1     ecut=    50.00 Ry     beta=0.20
     Davidson diagonalization with overlap
     ethr =  1.00E-02,  avg # of iterations =  9.0

     negative rho (up, down):  4.160E-04 0.000E+00

     total cpu time spent up to now is        5.9 secs

     total energy              =     -29.97557618 Ry
     Harris-Foulkes estimate   =     -30.20294666 Ry
     estimated scf accuracy    <       0.88820245 Ry

     iteration #  2     ecut=    50.00 Ry     beta=0.20
     Davidson diagonalization with overlap
     ethr =  6.34E-03,  avg # of iterations =  1.0

     negative rho (up, down):  1.179E-04 0.000E+00

     total cpu time spent up to now is        8.0 secs

     total energy              =     -29.77378520 Ry
     Harris-Foulkes estimate   =     -30.00225176 Ry
     estimated scf accuracy    <       0.39549642 Ry

     iteration #  3     ecut=    50.00 Ry     beta=0.20
     Davidson diagonalization with overlap
     ethr =  2.82E-03,  avg # of iterations =  2.0

     negative rho (up, down):  1.450E-04 0.000E+00

     total cpu time spent up to now is       10.3 secs

     total energy              =     -29.93033640 Ry
     Harris-Foulkes estimate   =     -29.89673096 Ry
     estimated scf accuracy    <       0.08777469 Ry

     iteration #  4     ecut=    50.00 Ry     beta=0.20
     Davidson diagonalization with overlap
     ethr =  6.27E-04,  avg # of iterations =  2.0

     negative rho (up, down):  3.513E-05 0.000E+00

     total cpu time spent up to now is       12.4 secs

     total energy              =     -29.84409020 Ry
     Harris-Foulkes estimate   =     -29.93864362 Ry
     estimated scf accuracy    <       0.21546217 Ry

     iteration #  5     ecut=    50.00 Ry     beta=0.20
     Davidson diagonalization with overlap
     ethr =  6.27E-04,  avg # of iterations =  2.0

     negative rho (up, down):  1.073E-05 0.000E+00

     total cpu time spent up to now is       14.7 secs

     total energy              =     -29.86705367 Ry
     Harris-Foulkes estimate   =     -29.87014299 Ry
     estimated scf accuracy    <       0.00880905 Ry

     iteration #  6     ecut=    50.00 Ry     beta=0.20
     Davidson diagonalization with overlap
     ethr =  6.29E-05,  avg # of iterations =  2.0

     negative rho (up, down):  5.126E-06 0.000E+00

     total cpu time spent up to now is       16.8 secs

     total energy              =     -29.86772714 Ry
     Harris-Foulkes estimate   =     -29.86826330 Ry
     estimated scf accuracy    <       0.00118452 Ry

     iteration #  7     ecut=    50.00 Ry     beta=0.20
     Davidson diagonalization with overlap
     ethr =  8.46E-06,  avg # of iterations =  2.0

     negative rho (up, down):  1.640E-07 0.000E+00

     total cpu time spent up to now is       19.1 secs

     total energy              =     -29.86807293 Ry
     Harris-Foulkes estimate   =     -29.86816291 Ry
     estimated scf accuracy    <       0.00025238 Ry

     iteration #  8     ecut=    50.00 Ry     beta=0.20
     Davidson diagonalization with overlap
     ethr =  1.80E-06,  avg # of iterations =  2.0

     total cpu time spent up to now is       21.3 secs

     total energy              =     -29.86810195 Ry
     Harris-Foulkes estimate   =     -29.86810740 Ry
     estimated scf accuracy    <       0.00002016 Ry

     iteration #  9     ecut=    50.00 Ry     beta=0.20
     Davidson diagonalization with overlap
     ethr =  1.44E-07,  avg # of iterations =  2.0

     total cpu time spent up to now is       23.5 secs

     total energy              =     -29.86810485 Ry
     Harris-Foulkes estimate   =     -29.86810544 Ry
     estimated scf accuracy    <       0.00000302 Ry

     iteration # 10     ecut=    50.00 Ry     beta=0.20
     Davidson diagonalization with overlap
     ethr =  2.16E-08,  avg # of iterations =  2.0

     total cpu time spent up to now is       25.3 secs

     End of self-consistent calculation

          k = 0.0000 0.0000 0.0000 ( 20170 PWs)   bands (ev):

   -18.2589 -14.8577 -10.2823  -9.9521  -8.9886  -8.0140  -7.0896

     highest occupied level (ev):    -7.0896

!    total energy              =     -29.86810533 Ry
     Harris-Foulkes estimate   =     -29.86810557 Ry
     estimated scf accuracy    <       0.00000047 Ry

     The total energy is the sum of the following terms:

     one-electron contribution =     -87.74924213 Ry
     hartree contribution      =      45.46157284 Ry
     xc contribution           =     -11.23494382 Ry
     ewald contribution        =      23.65450779 Ry

     convergence has been achieved in  10 iterations

     Forces acting on atoms (Ry/au):

     atom    1 type  1   force =    -0.10206358    0.06356789   -0.02346937
     atom    2 type  1   force =     0.04739361   -0.05979776    0.07096109
     atom    3 type  2   force =     0.02786928   -0.00042721    0.00730646
     atom    4 type  2   force =    -0.00019501   -0.01746251   -0.02035353
     atom    5 type  2   force =     0.05750209   -0.00414279    0.01626953
     atom    6 type  2   force =    -0.00766677   -0.00235365   -0.02131766
     atom    7 type  2   force =     0.00228397    0.01140669   -0.00698719
     atom    8 type  2   force =    -0.02512360    0.00920933   -0.02240933

     Total force =     0.181453     Total SCF correction =     0.001015


     entering subroutine stress ...

          total   stress  (Ry/bohr**3)                   (kbar)     P=   -3.68
  -0.00002835  -0.00000311   0.00000257         -4.17     -0.46      0.38
  -0.00000311  -0.00003106  -0.00000289         -0.46     -4.57     -0.43
   0.00000257  -0.00000289  -0.00001563          0.38     -0.43     -2.30


     init_run     :      2.05s CPU      2.13s WALL (       1 calls)
     electrons    :     22.87s CPU     23.12s WALL (       1 calls)
     forces       :      1.00s CPU      1.00s WALL (       1 calls)
     stress       :      1.26s CPU      1.30s WALL (       1 calls)

     Called by init_run:
     wfcinit      :      0.28s CPU      0.29s WALL (       1 calls)
     potinit      :      1.42s CPU      1.47s WALL (       1 calls)

     Called by electrons:
     c_bands      :      8.24s CPU      8.28s WALL (      10 calls)
     sum_band     :      2.02s CPU      2.03s WALL (      10 calls)
     v_of_rho     :     12.51s CPU     12.71s WALL (      11 calls)
     mix_rho      :      1.09s CPU      1.13s WALL (      10 calls)

     Called by c_bands:
     init_us_2    :      0.29s CPU      0.30s WALL (      21 calls)
     regterg      :      7.71s CPU      7.74s WALL (      10 calls)

     Called by *egterg:
     h_psi        :      7.50s CPU      7.52s WALL (      37 calls)
     g_psi        :      0.07s CPU      0.07s WALL (      26 calls)
     rdiaghg      :      0.00s CPU      0.01s WALL (      36 calls)

     Called by h_psi:
     add_vuspsi   :      0.12s CPU      0.12s WALL (      37 calls)

     General routines
     calbec       :      0.14s CPU      0.14s WALL (      42 calls)
     fft          :      3.68s CPU      3.75s WALL (     128 calls)
     fftw         :      6.29s CPU      6.31s WALL (     306 calls)

     Parallel routines
     fft_scatter  :      2.73s CPU      2.76s WALL (     434 calls)

     PWSCF        :    27.21s CPU        27.60s WALL


   This run was terminated on:  17:33:36   4Jul2020            

=------------------------------------------------------------------------------=
   JOB DONE.
=------------------------------------------------------------------------------=
