
     Program PWSCF v.5.1.1 starts on  4Jul2020 at 16:12:16 

     This program is part of the open-source Quantum ESPRESSO suite
     for quantum simulation of materials; please cite
         "P. Giannozzi et al., J. Phys.:Condens. Matter 21 395502 (2009);
          URL http://www.quantum-espresso.org", 
     in publications or presentations arising from this work. More details at
     http://www.quantum-espresso.org/quote

     Parallel version (MPI), running on     1 processors
     Waiting for input...
     Reading input from standard input
Warning: card &IONS ignored
Warning: card / ignored
Warning: card &CELL ignored
Warning: card / ignored

     Current dimensions of program PWSCF are:
     Max number of different atomic species (ntypx) = 10
     Max number of k-points (npk) =  40000
     Max angular momentum in pseudopotentials (lmaxx) =  3

     gamma-point specific algorithms are used

     Subspace diagonalization in iterative solution of the eigenvalue problem:
     a serial algorithm will be used


     G-vector sticks info
     --------------------
     sticks:   dense  smooth     PW     G-vecs:    dense   smooth      PW
     Sum        5689    5689   1433               322453   322453   40339
     Tot        2845    2845    717



     bravais-lattice index     =            1
     lattice parameter (alat)  =      18.8973  a.u.
     unit-cell volume          =    6748.3346 (a.u.)^3
     number of atoms/cell      =            8
     number of atomic types    =            2
     number of electrons       =        14.00
     number of Kohn-Sham states=            7
     kinetic-energy cutoff     =      50.0000  Ry
     charge density cutoff     =     200.0000  Ry
     convergence threshold     =      1.0E-06
     mixing beta               =       0.2000
     number of iterations used =            8  plain     mixing
     Exchange-correlation      = PBE ( 1  4  3  4 0 0)

     celldm(1)=  18.897261  celldm(2)=   0.000000  celldm(3)=   0.000000
     celldm(4)=   0.000000  celldm(5)=   0.000000  celldm(6)=   0.000000

     crystal axes: (cart. coord. in units of alat)
               a(1) = (   1.000000   0.000000   0.000000 )  
               a(2) = (   0.000000   1.000000   0.000000 )  
               a(3) = (   0.000000   0.000000   1.000000 )  

     reciprocal axes: (cart. coord. in units 2 pi/alat)
               b(1) = (  1.000000  0.000000  0.000000 )  
               b(2) = (  0.000000  1.000000  0.000000 )  
               b(3) = (  0.000000  0.000000  1.000000 )  


     PseudoPot. # 1 for C  read from file:
     ../../pseudo-potentials/C_ONCV_PBE-1.0.upf
     MD5 check sum: 40f8c33130f0afa4272e9dcc1c4fb0df
     Pseudo is Norm-conserving, Zval =  4.0
     Generated using ONCVPSP code by D. R. Hamann
     Using radial grid of  602 points,  4 beta functions with: 
                l(1) =   0
                l(2) =   0
                l(3) =   1
                l(4) =   1

     PseudoPot. # 2 for H  read from file:
     ../../pseudo-potentials/H_ONCV_PBE-1.0.upf
     MD5 check sum: 10f92816c437af099bca1a183851adc8
     Pseudo is Norm-conserving, Zval =  1.0
     Generated using ONCVPSP code by D. R. Hamann
     Using radial grid of  602 points,  2 beta functions with: 
                l(1) =   0
                l(2) =   0

     atomic species   valence    mass     pseudopotential
        C              4.00     1.00000     C ( 1.00)
        H              1.00     1.00000     H ( 1.00)

     No symmetry found



   Cartesian axes

     site n.     atom                  positions (alat units)
         1           C   tau(   1) = (   1.7472320   2.1844720   2.0054960  )
         2           C   tau(   2) = (   1.8474320   2.2974840   1.9953520  )
         3           H   tau(   3) = (   1.6419520   2.2198160   1.9744560  )
         4           H   tau(   4) = (   1.7414600   2.1376560   2.1024720  )
         5           H   tau(   5) = (   1.7730720   2.0978760   1.9416120  )
         6           H   tau(   6) = (   1.9081400   2.2990280   2.0853880  )
         7           H   tau(   7) = (   1.7981080   2.4058960   1.9825920  )
         8           H   tau(   8) = (   1.9140120   2.2750680   1.9033280  )

     number of k points=     1
                       cart. coord. in units 2pi/alat
        k(    1) = (   0.0000000   0.0000000   0.0000000), wk =   2.0000000

     Dense  grid:   161227 G-vectors     FFT dimensions: (  90,  90,  90)

     Largest allocated arrays     est. size (Mb)     dimensions
        Kohn-Sham Wavefunctions         2.15 Mb     (   20170,    7)
        NL pseudopotentials             8.62 Mb     (   20170,   28)
        Each V/rho on FFT grid         11.12 Mb     (  729000)
        Each G-vector array             1.23 Mb     (  161227)
        G-vector shells                 0.01 Mb     (    1510)
     Largest temporary arrays     est. size (Mb)     dimensions
        Auxiliary wavefunctions         4.31 Mb     (   20170,   28)
        Each subspace H/S matrix        0.01 Mb     (      28,   28)
        Each <psi_i|beta_j> matrix      0.00 Mb     (      28,    7)
        Arrays for rho mixing          88.99 Mb     (  729000,    8)

     Initial potential from superposition of free atoms
     Check: negative starting charge=   -0.000627

     starting charge   13.97327, renormalised to   14.00000

     negative rho (up, down):  6.278E-04 0.000E+00
     Starting wfc are random

     total cpu time spent up to now is        2.0 secs

     per-process dynamical memory:   141.6 Mb

     Self-consistent Calculation

     iteration #  1     ecut=    50.00 Ry     beta=0.20
     Davidson diagonalization with overlap
     ethr =  1.00E-02,  avg # of iterations =  9.0

     negative rho (up, down):  4.335E-04 0.000E+00

     total cpu time spent up to now is        5.3 secs

     total energy              =     -29.97720101 Ry
     Harris-Foulkes estimate   =     -30.21013109 Ry
     estimated scf accuracy    <       0.89808564 Ry

     iteration #  2     ecut=    50.00 Ry     beta=0.20
     Davidson diagonalization with overlap
     ethr =  6.41E-03,  avg # of iterations =  1.0

     negative rho (up, down):  1.368E-04 0.000E+00

     total cpu time spent up to now is        7.2 secs

     total energy              =     -29.79190849 Ry
     Harris-Foulkes estimate   =     -30.00308260 Ry
     estimated scf accuracy    <       0.37911682 Ry

     iteration #  3     ecut=    50.00 Ry     beta=0.20
     Davidson diagonalization with overlap
     ethr =  2.71E-03,  avg # of iterations =  2.0

     negative rho (up, down):  1.921E-04 0.000E+00

     total cpu time spent up to now is        9.2 secs

     total energy              =     -29.95384669 Ry
     Harris-Foulkes estimate   =     -29.90554390 Ry
     estimated scf accuracy    <       0.08359109 Ry

     iteration #  4     ecut=    50.00 Ry     beta=0.20
     Davidson diagonalization with overlap
     ethr =  5.97E-04,  avg # of iterations =  2.0

     negative rho (up, down):  1.007E-05 0.000E+00

     total cpu time spent up to now is       11.2 secs

     total energy              =     -29.82701046 Ry
     Harris-Foulkes estimate   =     -29.97065518 Ry
     estimated scf accuracy    <       0.30252262 Ry

     iteration #  5     ecut=    50.00 Ry     beta=0.20
     Davidson diagonalization with overlap
     ethr =  5.97E-04,  avg # of iterations =  3.0

     negative rho (up, down):  2.452E-06 0.000E+00

     total cpu time spent up to now is       13.4 secs

     total energy              =     -29.87817431 Ry
     Harris-Foulkes estimate   =     -29.87842878 Ry
     estimated scf accuracy    <       0.00161682 Ry

     iteration #  6     ecut=    50.00 Ry     beta=0.20
     Davidson diagonalization with overlap
     ethr =  1.15E-05,  avg # of iterations =  2.0

     negative rho (up, down):  1.207E-06 0.000E+00

     total cpu time spent up to now is       15.4 secs

     total energy              =     -29.87806167 Ry
     Harris-Foulkes estimate   =     -29.87853765 Ry
     estimated scf accuracy    <       0.00098610 Ry

     iteration #  7     ecut=    50.00 Ry     beta=0.20
     Davidson diagonalization with overlap
     ethr =  7.04E-06,  avg # of iterations =  2.0

     negative rho (up, down):  2.550E-08 0.000E+00

     total cpu time spent up to now is       17.4 secs

     total energy              =     -29.87821170 Ry
     Harris-Foulkes estimate   =     -29.87829991 Ry
     estimated scf accuracy    <       0.00021426 Ry

     iteration #  8     ecut=    50.00 Ry     beta=0.20
     Davidson diagonalization with overlap
     ethr =  1.53E-06,  avg # of iterations =  2.0

     negative rho (up, down):  2.137E-08 0.000E+00

     total cpu time spent up to now is       19.5 secs

     total energy              =     -29.87823719 Ry
     Harris-Foulkes estimate   =     -29.87823827 Ry
     estimated scf accuracy    <       0.00000955 Ry

     iteration #  9     ecut=    50.00 Ry     beta=0.20
     Davidson diagonalization with overlap
     ethr =  6.82E-08,  avg # of iterations =  3.0

     total cpu time spent up to now is       21.7 secs

     total energy              =     -29.87823380 Ry
     Harris-Foulkes estimate   =     -29.87824310 Ry
     estimated scf accuracy    <       0.00001887 Ry

     iteration # 10     ecut=    50.00 Ry     beta=0.20
     Davidson diagonalization with overlap
     ethr =  6.82E-08,  avg # of iterations =  2.0

     total cpu time spent up to now is       23.7 secs

     total energy              =     -29.87823759 Ry
     Harris-Foulkes estimate   =     -29.87823856 Ry
     estimated scf accuracy    <       0.00000211 Ry

     iteration # 11     ecut=    50.00 Ry     beta=0.20
     Davidson diagonalization with overlap
     ethr =  1.51E-08,  avg # of iterations =  2.0

     total cpu time spent up to now is       25.4 secs

     End of self-consistent calculation

          k = 0.0000 0.0000 0.0000 ( 20170 PWs)   bands (ev):

   -18.2282 -14.5013 -10.2865 -10.0684  -8.6897  -7.6948  -7.4734

     highest occupied level (ev):    -7.4734

!    total energy              =     -29.87823801 Ry
     Harris-Foulkes estimate   =     -29.87823808 Ry
     estimated scf accuracy    <       0.00000017 Ry

     The total energy is the sum of the following terms:

     one-electron contribution =     -87.44698592 Ry
     hartree contribution      =      45.31872117 Ry
     xc contribution           =     -11.19296869 Ry
     ewald contribution        =      23.44299543 Ry

     convergence has been achieved in  11 iterations

     Forces acting on atoms (Ry/au):

     atom    1 type  1   force =    -0.07038739   -0.00376854   -0.04189975
     atom    2 type  1   force =     0.00353621    0.05367819   -0.06184762
     atom    3 type  2   force =     0.04852243   -0.02600816    0.01755464
     atom    4 type  2   force =    -0.00822777    0.00661282    0.03123750
     atom    5 type  2   force =    -0.00238919    0.01466476   -0.00737588
     atom    6 type  2   force =     0.01728284    0.00958486    0.00331515
     atom    7 type  2   force =     0.03830887   -0.08530478    0.00790626
     atom    8 type  2   force =    -0.02664601    0.03054085    0.05110970

     Total force =     0.177787     Total SCF correction =     0.000623


     entering subroutine stress ...

          total   stress  (Ry/bohr**3)                   (kbar)     P=   -4.80
  -0.00002865   0.00003131   0.00000288         -4.22      4.61      0.42
   0.00003131  -0.00004788  -0.00000142          4.61     -7.04     -0.21
   0.00000288  -0.00000142  -0.00002129          0.42     -0.21     -3.13


     init_run     :      1.86s CPU      1.97s WALL (       1 calls)
     electrons    :     22.90s CPU     23.41s WALL (       1 calls)
     forces       :      0.92s CPU      0.93s WALL (       1 calls)
     stress       :      1.17s CPU      1.21s WALL (       1 calls)

     Called by init_run:
     wfcinit      :      0.22s CPU      0.23s WALL (       1 calls)
     potinit      :      1.29s CPU      1.37s WALL (       1 calls)

     Called by electrons:
     c_bands      :      7.64s CPU      7.72s WALL (      11 calls)
     sum_band     :      2.02s CPU      2.03s WALL (      11 calls)
     v_of_rho     :     13.10s CPU     13.47s WALL (      12 calls)
     mix_rho      :      1.10s CPU      1.19s WALL (      11 calls)

     Called by c_bands:
     init_us_2    :      0.31s CPU      0.31s WALL (      23 calls)
     regterg      :      7.07s CPU      7.14s WALL (      11 calls)

     Called by *egterg:
     h_psi        :      6.83s CPU      6.89s WALL (      42 calls)
     g_psi        :      0.09s CPU      0.09s WALL (      30 calls)
     rdiaghg      :      0.01s CPU      0.01s WALL (      41 calls)

     Called by h_psi:
     add_vuspsi   :      0.10s CPU      0.10s WALL (      42 calls)

     General routines
     calbec       :      0.13s CPU      0.14s WALL (      47 calls)
     fft          :      3.40s CPU      3.55s WALL (     139 calls)
     fftw         :      6.13s CPU      6.16s WALL (     348 calls)

     Parallel routines
     fft_scatter  :      2.17s CPU      2.23s WALL (     487 calls)

     PWSCF        :    26.88s CPU        27.58s WALL


   This run was terminated on:  16:12:43   4Jul2020            

=------------------------------------------------------------------------------=
   JOB DONE.
=------------------------------------------------------------------------------=
