
     Program PWSCF v.5.1.1 starts on  4Jul2020 at 16:12:52 

     This program is part of the open-source Quantum ESPRESSO suite
     for quantum simulation of materials; please cite
         "P. Giannozzi et al., J. Phys.:Condens. Matter 21 395502 (2009);
          URL http://www.quantum-espresso.org", 
     in publications or presentations arising from this work. More details at
     http://www.quantum-espresso.org/quote

     Parallel version (MPI), running on     1 processors
     Waiting for input...
     Reading input from standard input
Warning: card &IONS ignored
Warning: card / ignored
Warning: card &CELL ignored
Warning: card / ignored

     Current dimensions of program PWSCF are:
     Max number of different atomic species (ntypx) = 10
     Max number of k-points (npk) =  40000
     Max angular momentum in pseudopotentials (lmaxx) =  3

     gamma-point specific algorithms are used

     Subspace diagonalization in iterative solution of the eigenvalue problem:
     a serial algorithm will be used


     G-vector sticks info
     --------------------
     sticks:   dense  smooth     PW     G-vecs:    dense   smooth      PW
     Sum        5689    5689   1433               322453   322453   40339
     Tot        2845    2845    717



     bravais-lattice index     =            1
     lattice parameter (alat)  =      18.8973  a.u.
     unit-cell volume          =    6748.3346 (a.u.)^3
     number of atoms/cell      =            8
     number of atomic types    =            2
     number of electrons       =        14.00
     number of Kohn-Sham states=            7
     kinetic-energy cutoff     =      50.0000  Ry
     charge density cutoff     =     200.0000  Ry
     convergence threshold     =      1.0E-06
     mixing beta               =       0.2000
     number of iterations used =            8  plain     mixing
     Exchange-correlation      = PBE ( 1  4  3  4 0 0)

     celldm(1)=  18.897261  celldm(2)=   0.000000  celldm(3)=   0.000000
     celldm(4)=   0.000000  celldm(5)=   0.000000  celldm(6)=   0.000000

     crystal axes: (cart. coord. in units of alat)
               a(1) = (   1.000000   0.000000   0.000000 )  
               a(2) = (   0.000000   1.000000   0.000000 )  
               a(3) = (   0.000000   0.000000   1.000000 )  

     reciprocal axes: (cart. coord. in units 2 pi/alat)
               b(1) = (  1.000000  0.000000  0.000000 )  
               b(2) = (  0.000000  1.000000  0.000000 )  
               b(3) = (  0.000000  0.000000  1.000000 )  


     PseudoPot. # 1 for C  read from file:
     ../../pseudo-potentials/C_ONCV_PBE-1.0.upf
     MD5 check sum: 40f8c33130f0afa4272e9dcc1c4fb0df
     Pseudo is Norm-conserving, Zval =  4.0
     Generated using ONCVPSP code by D. R. Hamann
     Using radial grid of  602 points,  4 beta functions with: 
                l(1) =   0
                l(2) =   0
                l(3) =   1
                l(4) =   1

     PseudoPot. # 2 for H  read from file:
     ../../pseudo-potentials/H_ONCV_PBE-1.0.upf
     MD5 check sum: 10f92816c437af099bca1a183851adc8
     Pseudo is Norm-conserving, Zval =  1.0
     Generated using ONCVPSP code by D. R. Hamann
     Using radial grid of  602 points,  2 beta functions with: 
                l(1) =   0
                l(2) =   0

     atomic species   valence    mass     pseudopotential
        C              4.00     1.00000     C ( 1.00)
        H              1.00     1.00000     H ( 1.00)

     No symmetry found



   Cartesian axes

     site n.     atom                  positions (alat units)
         1           C   tau(   1) = (   1.7528840   2.1747640   1.9930280  )
         2           C   tau(   2) = (   1.8421240   2.3052840   2.0081080  )
         3           H   tau(   3) = (   1.7433880   2.1083240   2.0789880  )
         4           H   tau(   4) = (   1.7804080   2.1186640   1.9035840  )
         5           H   tau(   5) = (   1.6476320   2.2120400   1.9723960  )
         6           H   tau(   6) = (   1.8948440   2.3196720   2.1060640  )
         7           H   tau(   7) = (   1.7845280   2.3941880   1.9915920  )
         8           H   tau(   8) = (   1.9218280   2.3051800   1.9338600  )

     number of k points=     1
                       cart. coord. in units 2pi/alat
        k(    1) = (   0.0000000   0.0000000   0.0000000), wk =   2.0000000

     Dense  grid:   161227 G-vectors     FFT dimensions: (  90,  90,  90)

     Largest allocated arrays     est. size (Mb)     dimensions
        Kohn-Sham Wavefunctions         2.15 Mb     (   20170,    7)
        NL pseudopotentials             8.62 Mb     (   20170,   28)
        Each V/rho on FFT grid         11.12 Mb     (  729000)
        Each G-vector array             1.23 Mb     (  161227)
        G-vector shells                 0.01 Mb     (    1510)
     Largest temporary arrays     est. size (Mb)     dimensions
        Auxiliary wavefunctions         4.31 Mb     (   20170,   28)
        Each subspace H/S matrix        0.01 Mb     (      28,   28)
        Each <psi_i|beta_j> matrix      0.00 Mb     (      28,    7)
        Arrays for rho mixing          88.99 Mb     (  729000,    8)

     Initial potential from superposition of free atoms
     Check: negative starting charge=   -0.000639

     starting charge   13.97327, renormalised to   14.00000

     negative rho (up, down):  6.399E-04 0.000E+00
     Starting wfc are random

     total cpu time spent up to now is        2.2 secs

     per-process dynamical memory:   141.6 Mb

     Self-consistent Calculation

     iteration #  1     ecut=    50.00 Ry     beta=0.20
     Davidson diagonalization with overlap
     ethr =  1.00E-02,  avg # of iterations =  9.0

     negative rho (up, down):  4.483E-04 0.000E+00

     total cpu time spent up to now is        5.3 secs

     total energy              =     -30.00296578 Ry
     Harris-Foulkes estimate   =     -30.23344493 Ry
     estimated scf accuracy    <       0.90770763 Ry

     iteration #  2     ecut=    50.00 Ry     beta=0.20
     Davidson diagonalization with overlap
     ethr =  6.48E-03,  avg # of iterations =  1.0

     negative rho (up, down):  1.336E-04 0.000E+00

     total cpu time spent up to now is        7.2 secs

     total energy              =     -29.79913003 Ry
     Harris-Foulkes estimate   =     -30.02859479 Ry
     estimated scf accuracy    <       0.40111274 Ry

     iteration #  3     ecut=    50.00 Ry     beta=0.20
     Davidson diagonalization with overlap
     ethr =  2.87E-03,  avg # of iterations =  2.0

     negative rho (up, down):  1.687E-04 0.000E+00

     total cpu time spent up to now is        9.3 secs

     total energy              =     -29.94539131 Ry
     Harris-Foulkes estimate   =     -29.91524800 Ry
     estimated scf accuracy    <       0.07707613 Ry

     iteration #  4     ecut=    50.00 Ry     beta=0.20
     Davidson diagonalization with overlap
     ethr =  5.51E-04,  avg # of iterations =  2.0

     negative rho (up, down):  3.204E-05 0.000E+00

     total cpu time spent up to now is       11.4 secs

     total energy              =     -29.87321607 Ry
     Harris-Foulkes estimate   =     -29.95324987 Ry
     estimated scf accuracy    <       0.19612336 Ry

     iteration #  5     ecut=    50.00 Ry     beta=0.20
     Davidson diagonalization with overlap
     ethr =  5.51E-04,  avg # of iterations =  2.0

     negative rho (up, down):  7.507E-06 0.000E+00

     total cpu time spent up to now is       13.4 secs

     total energy              =     -29.88874057 Ry
     Harris-Foulkes estimate   =     -29.89313079 Ry
     estimated scf accuracy    <       0.01377988 Ry

     iteration #  6     ecut=    50.00 Ry     beta=0.20
     Davidson diagonalization with overlap
     ethr =  9.84E-05,  avg # of iterations =  1.0

     negative rho (up, down):  4.108E-06 0.000E+00

     total cpu time spent up to now is       15.3 secs

     total energy              =     -29.88832274 Ry
     Harris-Foulkes estimate   =     -29.88977741 Ry
     estimated scf accuracy    <       0.00323454 Ry

     iteration #  7     ecut=    50.00 Ry     beta=0.20
     Davidson diagonalization with overlap
     ethr =  2.31E-05,  avg # of iterations =  3.0

     negative rho (up, down):  1.830E-07 0.000E+00

     total cpu time spent up to now is       17.4 secs

     total energy              =     -29.88934212 Ry
     Harris-Foulkes estimate   =     -29.88958397 Ry
     estimated scf accuracy    <       0.00051117 Ry

     iteration #  8     ecut=    50.00 Ry     beta=0.20
     Davidson diagonalization with overlap
     ethr =  3.65E-06,  avg # of iterations =  2.0

     negative rho (up, down):  5.048E-08 0.000E+00

     total cpu time spent up to now is       19.4 secs

     total energy              =     -29.88944078 Ry
     Harris-Foulkes estimate   =     -29.88943580 Ry
     estimated scf accuracy    <       0.00001383 Ry

     iteration #  9     ecut=    50.00 Ry     beta=0.20
     Davidson diagonalization with overlap
     ethr =  9.88E-08,  avg # of iterations =  2.0

     total cpu time spent up to now is       21.4 secs

     total energy              =     -29.88944387 Ry
     Harris-Foulkes estimate   =     -29.88945071 Ry
     estimated scf accuracy    <       0.00004609 Ry

     iteration # 10     ecut=    50.00 Ry     beta=0.20
     Davidson diagonalization with overlap
     ethr =  9.88E-08,  avg # of iterations =  2.0

     total cpu time spent up to now is       23.4 secs

     total energy              =     -29.88943856 Ry
     Harris-Foulkes estimate   =     -29.88944602 Ry
     estimated scf accuracy    <       0.00002504 Ry

     iteration # 11     ecut=    50.00 Ry     beta=0.20
     Davidson diagonalization with overlap
     ethr =  9.88E-08,  avg # of iterations =  2.0

     total cpu time spent up to now is       25.2 secs

     total energy              =     -29.88943761 Ry
     Harris-Foulkes estimate   =     -29.88943995 Ry
     estimated scf accuracy    <       0.00000583 Ry

     iteration # 12     ecut=    50.00 Ry     beta=0.20
     Davidson diagonalization with overlap
     ethr =  4.16E-08,  avg # of iterations =  2.0

     total cpu time spent up to now is       26.6 secs

     End of self-consistent calculation

          k = 0.0000 0.0000 0.0000 ( 20170 PWs)   bands (ev):

   -17.9825 -14.8985 -10.1261 -10.0245  -8.5475  -7.9614  -7.7063

     highest occupied level (ev):    -7.7063

!    total energy              =     -29.88943818 Ry
     Harris-Foulkes estimate   =     -29.88943844 Ry
     estimated scf accuracy    <       0.00000039 Ry

     The total energy is the sum of the following terms:

     one-electron contribution =     -87.12360292 Ry
     hartree contribution      =      45.17302811 Ry
     xc contribution           =     -11.24934088 Ry
     ewald contribution        =      23.31047751 Ry

     convergence has been achieved in  12 iterations

     Forces acting on atoms (Ry/au):

     atom    1 type  1   force =    -0.03666453    0.07284616   -0.01400874
     atom    2 type  1   force =     0.01709427   -0.05208172    0.02787982
     atom    3 type  2   force =     0.01477797    0.00041331    0.00722653
     atom    4 type  2   force =     0.00753103   -0.00836145    0.00141732
     atom    5 type  2   force =     0.03090429   -0.01941991    0.00782922
     atom    6 type  2   force =    -0.02035218   -0.01515914   -0.01691640
     atom    7 type  2   force =    -0.01990289    0.02318000   -0.00446427
     atom    8 type  2   force =     0.00661205   -0.00141726   -0.00896348

     Total force =     0.120132     Total SCF correction =     0.000724


     entering subroutine stress ...

          total   stress  (Ry/bohr**3)                   (kbar)     P=   -3.62
  -0.00002761  -0.00001166  -0.00000684         -4.06     -1.72     -1.01
  -0.00001166  -0.00002759  -0.00000342         -1.72     -4.06     -0.50
  -0.00000684  -0.00000342  -0.00001852         -1.01     -0.50     -2.72


     init_run     :      2.04s CPU      2.12s WALL (       1 calls)
     electrons    :     24.20s CPU     24.48s WALL (       1 calls)
     forces       :      0.89s CPU      0.90s WALL (       1 calls)
     stress       :      1.13s CPU      1.16s WALL (       1 calls)

     Called by init_run:
     wfcinit      :      0.23s CPU      0.24s WALL (       1 calls)
     potinit      :      1.45s CPU      1.49s WALL (       1 calls)

     Called by electrons:
     c_bands      :      7.40s CPU      7.44s WALL (      12 calls)
     sum_band     :      2.13s CPU      2.14s WALL (      12 calls)
     v_of_rho     :     14.54s CPU     14.74s WALL (      13 calls)
     mix_rho      :      1.20s CPU      1.26s WALL (      12 calls)

     Called by c_bands:
     init_us_2    :      0.33s CPU      0.33s WALL (      25 calls)
     regterg      :      6.78s CPU      6.82s WALL (      12 calls)

     Called by *egterg:
     h_psi        :      6.58s CPU      6.61s WALL (      43 calls)
     g_psi        :      0.09s CPU      0.09s WALL (      30 calls)
     rdiaghg      :      0.01s CPU      0.01s WALL (      42 calls)

     Called by h_psi:
     add_vuspsi   :      0.09s CPU      0.10s WALL (      43 calls)

     General routines
     calbec       :      0.12s CPU      0.12s WALL (      48 calls)
     fft          :      3.85s CPU      3.94s WALL (     150 calls)
     fftw         :      6.01s CPU      6.03s WALL (     356 calls)

     Parallel routines
     fft_scatter  :      2.30s CPU      2.34s WALL (     506 calls)

     PWSCF        :    28.29s CPU        28.70s WALL


   This run was terminated on:  16:13:21   4Jul2020            

=------------------------------------------------------------------------------=
   JOB DONE.
=------------------------------------------------------------------------------=
