
     Program PWSCF v.5.1.1 starts on  4Jul2020 at 17:33: 8 

     This program is part of the open-source Quantum ESPRESSO suite
     for quantum simulation of materials; please cite
         "P. Giannozzi et al., J. Phys.:Condens. Matter 21 395502 (2009);
          URL http://www.quantum-espresso.org", 
     in publications or presentations arising from this work. More details at
     http://www.quantum-espresso.org/quote

     Parallel version (MPI), running on     1 processors
     Waiting for input...
     Reading input from standard input
Warning: card &IONS ignored
Warning: card / ignored
Warning: card &CELL ignored
Warning: card / ignored

     Current dimensions of program PWSCF are:
     Max number of different atomic species (ntypx) = 10
     Max number of k-points (npk) =  40000
     Max angular momentum in pseudopotentials (lmaxx) =  3

     gamma-point specific algorithms are used

     Subspace diagonalization in iterative solution of the eigenvalue problem:
     a serial algorithm will be used


     G-vector sticks info
     --------------------
     sticks:   dense  smooth     PW     G-vecs:    dense   smooth      PW
     Sum        5689    5689   1433               322453   322453   40339
     Tot        2845    2845    717



     bravais-lattice index     =            1
     lattice parameter (alat)  =      18.8973  a.u.
     unit-cell volume          =    6748.3346 (a.u.)^3
     number of atoms/cell      =            8
     number of atomic types    =            2
     number of electrons       =        14.00
     number of Kohn-Sham states=            7
     kinetic-energy cutoff     =      50.0000  Ry
     charge density cutoff     =     200.0000  Ry
     convergence threshold     =      1.0E-06
     mixing beta               =       0.2000
     number of iterations used =            8  plain     mixing
     Exchange-correlation      = PBE ( 1  4  3  4 0 0)

     celldm(1)=  18.897261  celldm(2)=   0.000000  celldm(3)=   0.000000
     celldm(4)=   0.000000  celldm(5)=   0.000000  celldm(6)=   0.000000

     crystal axes: (cart. coord. in units of alat)
               a(1) = (   1.000000   0.000000   0.000000 )  
               a(2) = (   0.000000   1.000000   0.000000 )  
               a(3) = (   0.000000   0.000000   1.000000 )  

     reciprocal axes: (cart. coord. in units 2 pi/alat)
               b(1) = (  1.000000  0.000000  0.000000 )  
               b(2) = (  0.000000  1.000000  0.000000 )  
               b(3) = (  0.000000  0.000000  1.000000 )  


     PseudoPot. # 1 for C  read from file:
     ../../pseudo-potentials/C_ONCV_PBE-1.0.upf
     MD5 check sum: 40f8c33130f0afa4272e9dcc1c4fb0df
     Pseudo is Norm-conserving, Zval =  4.0
     Generated using ONCVPSP code by D. R. Hamann
     Using radial grid of  602 points,  4 beta functions with: 
                l(1) =   0
                l(2) =   0
                l(3) =   1
                l(4) =   1

     PseudoPot. # 2 for H  read from file:
     ../../pseudo-potentials/H_ONCV_PBE-1.0.upf
     MD5 check sum: 10f92816c437af099bca1a183851adc8
     Pseudo is Norm-conserving, Zval =  1.0
     Generated using ONCVPSP code by D. R. Hamann
     Using radial grid of  602 points,  2 beta functions with: 
                l(1) =   0
                l(2) =   0

     atomic species   valence    mass     pseudopotential
        C              4.00     1.00000     C ( 1.00)
        H              1.00     1.00000     H ( 1.00)

     No symmetry found



   Cartesian axes

     site n.     atom                  positions (alat units)
         1           C   tau(   1) = (   1.7421520   2.1911360   1.9834080  )
         2           C   tau(   2) = (   1.8500080   2.2919720   2.0153320  )
         3           H   tau(   3) = (   1.6610640   2.1774640   2.0567640  )
         4           H   tau(   4) = (   1.7945840   2.0967920   1.9960200  )
         5           H   tau(   5) = (   1.6948360   2.2003640   1.8820160  )
         6           H   tau(   6) = (   1.9328040   2.3025800   1.9468960  )
         7           H   tau(   7) = (   1.8996400   2.2507240   2.1022120  )
         8           H   tau(   8) = (   1.8236400   2.3937160   2.0311000  )

     number of k points=     1
                       cart. coord. in units 2pi/alat
        k(    1) = (   0.0000000   0.0000000   0.0000000), wk =   2.0000000

     Dense  grid:   161227 G-vectors     FFT dimensions: (  90,  90,  90)

     Largest allocated arrays     est. size (Mb)     dimensions
        Kohn-Sham Wavefunctions         2.15 Mb     (   20170,    7)
        NL pseudopotentials             8.62 Mb     (   20170,   28)
        Each V/rho on FFT grid         11.12 Mb     (  729000)
        Each G-vector array             1.23 Mb     (  161227)
        G-vector shells                 0.01 Mb     (    1510)
     Largest temporary arrays     est. size (Mb)     dimensions
        Auxiliary wavefunctions         4.31 Mb     (   20170,   28)
        Each subspace H/S matrix        0.01 Mb     (      28,   28)
        Each <psi_i|beta_j> matrix      0.00 Mb     (      28,    7)
        Arrays for rho mixing          88.99 Mb     (  729000,    8)

     Initial potential from superposition of free atoms
     Check: negative starting charge=   -0.000643

     starting charge   13.97327, renormalised to   14.00000

     negative rho (up, down):  6.447E-04 0.000E+00
     Starting wfc are random

     total cpu time spent up to now is        2.1 secs

     per-process dynamical memory:   141.6 Mb

     Self-consistent Calculation

     iteration #  1     ecut=    50.00 Ry     beta=0.20
     Davidson diagonalization with overlap
     ethr =  1.00E-02,  avg # of iterations =  9.0

     negative rho (up, down):  3.848E-04 0.000E+00

     total cpu time spent up to now is        5.9 secs

     total energy              =     -30.01031865 Ry
     Harris-Foulkes estimate   =     -30.25311039 Ry
     estimated scf accuracy    <       0.94710270 Ry

     iteration #  2     ecut=    50.00 Ry     beta=0.20
     Davidson diagonalization with overlap
     ethr =  6.77E-03,  avg # of iterations =  1.0

     negative rho (up, down):  9.332E-05 0.000E+00

     total cpu time spent up to now is        7.9 secs

     total energy              =     -29.77464157 Ry
     Harris-Foulkes estimate   =     -30.03545140 Ry
     estimated scf accuracy    <       0.43734739 Ry

     iteration #  3     ecut=    50.00 Ry     beta=0.20
     Davidson diagonalization with overlap
     ethr =  3.12E-03,  avg # of iterations =  2.0

     negative rho (up, down):  1.083E-04 0.000E+00

     total cpu time spent up to now is       10.1 secs

     total energy              =     -29.96530771 Ry
     Harris-Foulkes estimate   =     -29.91680591 Ry
     estimated scf accuracy    <       0.10092120 Ry

     iteration #  4     ecut=    50.00 Ry     beta=0.20
     Davidson diagonalization with overlap
     ethr =  7.21E-04,  avg # of iterations =  2.0

     negative rho (up, down):  2.105E-05 0.000E+00

     total cpu time spent up to now is       12.2 secs

     total energy              =     -29.83536749 Ry
     Harris-Foulkes estimate   =     -29.97880784 Ry
     estimated scf accuracy    <       0.30391171 Ry

     iteration #  5     ecut=    50.00 Ry     beta=0.20
     Davidson diagonalization with overlap
     ethr =  7.21E-04,  avg # of iterations =  2.0

     negative rho (up, down):  6.531E-06 0.000E+00

     total cpu time spent up to now is       14.6 secs

     total energy              =     -29.88388151 Ry
     Harris-Foulkes estimate   =     -29.88444045 Ry
     estimated scf accuracy    <       0.00386186 Ry

     iteration #  6     ecut=    50.00 Ry     beta=0.20
     Davidson diagonalization with overlap
     ethr =  2.76E-05,  avg # of iterations =  2.0

     negative rho (up, down):  2.315E-06 0.000E+00

     total cpu time spent up to now is       16.8 secs

     total energy              =     -29.88343032 Ry
     Harris-Foulkes estimate   =     -29.88444564 Ry
     estimated scf accuracy    <       0.00231077 Ry

     iteration #  7     ecut=    50.00 Ry     beta=0.20
     Davidson diagonalization with overlap
     ethr =  1.65E-05,  avg # of iterations =  2.0

     total cpu time spent up to now is       19.1 secs

     total energy              =     -29.88378445 Ry
     Harris-Foulkes estimate   =     -29.88388271 Ry
     estimated scf accuracy    <       0.00025786 Ry

     iteration #  8     ecut=    50.00 Ry     beta=0.20
     Davidson diagonalization with overlap
     ethr =  1.84E-06,  avg # of iterations =  2.0

     total cpu time spent up to now is       21.2 secs

     total energy              =     -29.88381256 Ry
     Harris-Foulkes estimate   =     -29.88381245 Ry
     estimated scf accuracy    <       0.00000714 Ry

     iteration #  9     ecut=    50.00 Ry     beta=0.20
     Davidson diagonalization with overlap
     ethr =  5.10E-08,  avg # of iterations =  2.0

     total cpu time spent up to now is       23.4 secs

     total energy              =     -29.88381317 Ry
     Harris-Foulkes estimate   =     -29.88381462 Ry
     estimated scf accuracy    <       0.00000440 Ry

     iteration # 10     ecut=    50.00 Ry     beta=0.20
     Davidson diagonalization with overlap
     ethr =  3.14E-08,  avg # of iterations =  2.0

     total cpu time spent up to now is       25.3 secs

     End of self-consistent calculation

          k = 0.0000 0.0000 0.0000 ( 20170 PWs)   bands (ev):

   -18.4273 -14.9225 -10.5616  -9.9023  -9.0161  -7.8982  -7.4355

     highest occupied level (ev):    -7.4355

!    total energy              =     -29.88381379 Ry
     Harris-Foulkes estimate   =     -29.88381387 Ry
     estimated scf accuracy    <       0.00000035 Ry

     The total energy is the sum of the following terms:

     one-electron contribution =     -89.45164364 Ry
     hartree contribution      =      46.33187357 Ry
     xc contribution           =     -11.34618193 Ry
     ewald contribution        =      24.58213821 Ry

     convergence has been achieved in  10 iterations

     Forces acting on atoms (Ry/au):

     atom    1 type  1   force =    -0.01168934   -0.01374895   -0.03047011
     atom    2 type  1   force =     0.01097667   -0.01560117    0.01825073
     atom    3 type  2   force =     0.00167238    0.02948218    0.00310796
     atom    4 type  2   force =    -0.00209985   -0.02706751   -0.02776479
     atom    5 type  2   force =     0.01652958   -0.00629412    0.02488460
     atom    6 type  2   force =     0.00692414   -0.01967581   -0.04022952
     atom    7 type  2   force =     0.00897498    0.01391185    0.03190015
     atom    8 type  2   force =    -0.03128855    0.03899353    0.02032098

     Total force =     0.107380     Total SCF correction =     0.000503


     entering subroutine stress ...

          total   stress  (Ry/bohr**3)                   (kbar)     P=   -0.79
  -0.00001487  -0.00000904  -0.00000503         -2.19     -1.33     -0.74
  -0.00000904   0.00000393   0.00001773         -1.33      0.58      2.61
  -0.00000503   0.00001773  -0.00000525         -0.74      2.61     -0.77


     init_run     :      2.03s CPU      2.10s WALL (       1 calls)
     electrons    :     22.91s CPU     23.15s WALL (       1 calls)
     forces       :      1.01s CPU      1.01s WALL (       1 calls)
     stress       :      1.27s CPU      1.30s WALL (       1 calls)

     Called by init_run:
     wfcinit      :      0.30s CPU      0.31s WALL (       1 calls)
     potinit      :      1.39s CPU      1.43s WALL (       1 calls)

     Called by electrons:
     c_bands      :      8.25s CPU      8.29s WALL (      10 calls)
     sum_band     :      2.25s CPU      2.26s WALL (      10 calls)
     v_of_rho     :     12.22s CPU     12.39s WALL (      11 calls)
     mix_rho      :      1.18s CPU      1.23s WALL (      10 calls)

     Called by c_bands:
     init_us_2    :      0.29s CPU      0.30s WALL (      21 calls)
     regterg      :      7.75s CPU      7.78s WALL (      10 calls)

     Called by *egterg:
     h_psi        :      7.53s CPU      7.57s WALL (      37 calls)
     g_psi        :      0.07s CPU      0.07s WALL (      26 calls)
     rdiaghg      :      0.01s CPU      0.01s WALL (      36 calls)

     Called by h_psi:
     add_vuspsi   :      0.12s CPU      0.12s WALL (      37 calls)

     General routines
     calbec       :      0.15s CPU      0.15s WALL (      42 calls)
     fft          :      3.63s CPU      3.72s WALL (     128 calls)
     fftw         :      6.37s CPU      6.40s WALL (     310 calls)

     Parallel routines
     fft_scatter  :      2.72s CPU      2.77s WALL (     438 calls)

     PWSCF        :    27.25s CPU        27.61s WALL


   This run was terminated on:  17:33:36   4Jul2020            

=------------------------------------------------------------------------------=
   JOB DONE.
=------------------------------------------------------------------------------=
