
     Program PWSCF v.5.1.1 starts on  4Jul2020 at 17:32:31 

     This program is part of the open-source Quantum ESPRESSO suite
     for quantum simulation of materials; please cite
         "P. Giannozzi et al., J. Phys.:Condens. Matter 21 395502 (2009);
          URL http://www.quantum-espresso.org", 
     in publications or presentations arising from this work. More details at
     http://www.quantum-espresso.org/quote

     Parallel version (MPI), running on     1 processors
     Waiting for input...
     Reading input from standard input
Warning: card &IONS ignored
Warning: card / ignored
Warning: card &CELL ignored
Warning: card / ignored

     Current dimensions of program PWSCF are:
     Max number of different atomic species (ntypx) = 10
     Max number of k-points (npk) =  40000
     Max angular momentum in pseudopotentials (lmaxx) =  3

     gamma-point specific algorithms are used

     Subspace diagonalization in iterative solution of the eigenvalue problem:
     a serial algorithm will be used


     G-vector sticks info
     --------------------
     sticks:   dense  smooth     PW     G-vecs:    dense   smooth      PW
     Sum        5689    5689   1433               322453   322453   40339
     Tot        2845    2845    717



     bravais-lattice index     =            1
     lattice parameter (alat)  =      18.8973  a.u.
     unit-cell volume          =    6748.3346 (a.u.)^3
     number of atoms/cell      =            8
     number of atomic types    =            2
     number of electrons       =        14.00
     number of Kohn-Sham states=            7
     kinetic-energy cutoff     =      50.0000  Ry
     charge density cutoff     =     200.0000  Ry
     convergence threshold     =      1.0E-06
     mixing beta               =       0.2000
     number of iterations used =            8  plain     mixing
     Exchange-correlation      = PBE ( 1  4  3  4 0 0)

     celldm(1)=  18.897261  celldm(2)=   0.000000  celldm(3)=   0.000000
     celldm(4)=   0.000000  celldm(5)=   0.000000  celldm(6)=   0.000000

     crystal axes: (cart. coord. in units of alat)
               a(1) = (   1.000000   0.000000   0.000000 )  
               a(2) = (   0.000000   1.000000   0.000000 )  
               a(3) = (   0.000000   0.000000   1.000000 )  

     reciprocal axes: (cart. coord. in units 2 pi/alat)
               b(1) = (  1.000000  0.000000  0.000000 )  
               b(2) = (  0.000000  1.000000  0.000000 )  
               b(3) = (  0.000000  0.000000  1.000000 )  


     PseudoPot. # 1 for C  read from file:
     ../../pseudo-potentials/C_ONCV_PBE-1.0.upf
     MD5 check sum: 40f8c33130f0afa4272e9dcc1c4fb0df
     Pseudo is Norm-conserving, Zval =  4.0
     Generated using ONCVPSP code by D. R. Hamann
     Using radial grid of  602 points,  4 beta functions with: 
                l(1) =   0
                l(2) =   0
                l(3) =   1
                l(4) =   1

     PseudoPot. # 2 for H  read from file:
     ../../pseudo-potentials/H_ONCV_PBE-1.0.upf
     MD5 check sum: 10f92816c437af099bca1a183851adc8
     Pseudo is Norm-conserving, Zval =  1.0
     Generated using ONCVPSP code by D. R. Hamann
     Using radial grid of  602 points,  2 beta functions with: 
                l(1) =   0
                l(2) =   0

     atomic species   valence    mass     pseudopotential
        C              4.00     1.00000     C ( 1.00)
        H              1.00     1.00000     H ( 1.00)

     No symmetry found



   Cartesian axes

     site n.     atom                  positions (alat units)
         1           C   tau(   1) = (   1.7485160   2.1813360   1.9869200  )
         2           C   tau(   2) = (   1.8451520   2.2999960   2.0149560  )
         3           H   tau(   3) = (   1.7826240   2.0769280   2.0037800  )
         4           H   tau(   4) = (   1.7260480   2.1886320   1.8817680  )
         5           H   tau(   5) = (   1.6488080   2.1870360   2.0508400  )
         6           H   tau(   6) = (   1.8002600   2.4048800   2.0267600  )
         7           H   tau(   7) = (   1.9045480   2.2989400   1.9234040  )
         8           H   tau(   8) = (   1.9263320   2.2863800   2.0910680  )

     number of k points=     1
                       cart. coord. in units 2pi/alat
        k(    1) = (   0.0000000   0.0000000   0.0000000), wk =   2.0000000

     Dense  grid:   161227 G-vectors     FFT dimensions: (  90,  90,  90)

     Largest allocated arrays     est. size (Mb)     dimensions
        Kohn-Sham Wavefunctions         2.15 Mb     (   20170,    7)
        NL pseudopotentials             8.62 Mb     (   20170,   28)
        Each V/rho on FFT grid         11.12 Mb     (  729000)
        Each G-vector array             1.23 Mb     (  161227)
        G-vector shells                 0.01 Mb     (    1510)
     Largest temporary arrays     est. size (Mb)     dimensions
        Auxiliary wavefunctions         4.31 Mb     (   20170,   28)
        Each subspace H/S matrix        0.01 Mb     (      28,   28)
        Each <psi_i|beta_j> matrix      0.00 Mb     (      28,    7)
        Arrays for rho mixing          88.99 Mb     (  729000,    8)

     Initial potential from superposition of free atoms
     Check: negative starting charge=   -0.000635

     starting charge   13.97327, renormalised to   14.00000

     negative rho (up, down):  6.366E-04 0.000E+00
     Starting wfc are random

     total cpu time spent up to now is        2.2 secs

     per-process dynamical memory:   141.6 Mb

     Self-consistent Calculation

     iteration #  1     ecut=    50.00 Ry     beta=0.20
     Davidson diagonalization with overlap
     ethr =  1.00E-02,  avg # of iterations =  9.0

     negative rho (up, down):  4.456E-04 0.000E+00

     total cpu time spent up to now is        6.2 secs

     total energy              =     -29.97653051 Ry
     Harris-Foulkes estimate   =     -30.19833355 Ry
     estimated scf accuracy    <       0.86747263 Ry

     iteration #  2     ecut=    50.00 Ry     beta=0.20
     Davidson diagonalization with overlap
     ethr =  6.20E-03,  avg # of iterations =  1.0

     negative rho (up, down):  1.405E-04 0.000E+00

     total cpu time spent up to now is        8.3 secs

     total energy              =     -29.79180140 Ry
     Harris-Foulkes estimate   =     -30.00173807 Ry
     estimated scf accuracy    <       0.37435738 Ry

     iteration #  3     ecut=    50.00 Ry     beta=0.20
     Davidson diagonalization with overlap
     ethr =  2.67E-03,  avg # of iterations =  2.0

     negative rho (up, down):  1.832E-04 0.000E+00

     total cpu time spent up to now is       10.6 secs

     total energy              =     -29.93023340 Ry
     Harris-Foulkes estimate   =     -29.89948636 Ry
     estimated scf accuracy    <       0.07571496 Ry

     iteration #  4     ecut=    50.00 Ry     beta=0.20
     Davidson diagonalization with overlap
     ethr =  5.41E-04,  avg # of iterations =  2.0

     negative rho (up, down):  2.130E-05 0.000E+00

     total cpu time spent up to now is       12.9 secs

     total energy              =     -29.85028597 Ry
     Harris-Foulkes estimate   =     -29.93889876 Ry
     estimated scf accuracy    <       0.20485779 Ry

     iteration #  5     ecut=    50.00 Ry     beta=0.20
     Davidson diagonalization with overlap
     ethr =  5.41E-04,  avg # of iterations =  2.0

     negative rho (up, down):  2.114E-06 0.000E+00

     total cpu time spent up to now is       15.2 secs

     total energy              =     -29.87424501 Ry
     Harris-Foulkes estimate   =     -29.87608892 Ry
     estimated scf accuracy    <       0.00621931 Ry

     iteration #  6     ecut=    50.00 Ry     beta=0.20
     Davidson diagonalization with overlap
     ethr =  4.44E-05,  avg # of iterations =  2.0

     negative rho (up, down):  1.926E-06 0.000E+00

     total cpu time spent up to now is       17.4 secs

     total energy              =     -29.87401841 Ry
     Harris-Foulkes estimate   =     -29.87478213 Ry
     estimated scf accuracy    <       0.00174618 Ry

     iteration #  7     ecut=    50.00 Ry     beta=0.20
     Davidson diagonalization with overlap
     ethr =  1.25E-05,  avg # of iterations =  2.0

     negative rho (up, down):  4.657E-08 0.000E+00

     total cpu time spent up to now is       19.6 secs

     total energy              =     -29.87454198 Ry
     Harris-Foulkes estimate   =     -29.87461480 Ry
     estimated scf accuracy    <       0.00021625 Ry

     iteration #  8     ecut=    50.00 Ry     beta=0.20
     Davidson diagonalization with overlap
     ethr =  1.54E-06,  avg # of iterations =  2.0

     negative rho (up, down):  1.302E-08 0.000E+00

     total cpu time spent up to now is       21.8 secs

     total energy              =     -29.87457270 Ry
     Harris-Foulkes estimate   =     -29.87457318 Ry
     estimated scf accuracy    <       0.00002257 Ry

     iteration #  9     ecut=    50.00 Ry     beta=0.20
     Davidson diagonalization with overlap
     ethr =  1.61E-07,  avg # of iterations =  1.0

     total cpu time spent up to now is       23.8 secs

     total energy              =     -29.87456843 Ry
     Harris-Foulkes estimate   =     -29.87457377 Ry
     estimated scf accuracy    <       0.00001631 Ry

     iteration # 10     ecut=    50.00 Ry     beta=0.20
     Davidson diagonalization with overlap
     ethr =  1.17E-07,  avg # of iterations =  2.0

     total cpu time spent up to now is       25.9 secs

     total energy              =     -29.87456936 Ry
     Harris-Foulkes estimate   =     -29.87457027 Ry
     estimated scf accuracy    <       0.00000246 Ry

     iteration # 11     ecut=    50.00 Ry     beta=0.20
     Davidson diagonalization with overlap
     ethr =  1.75E-08,  avg # of iterations =  2.0

     total cpu time spent up to now is       27.4 secs

     End of self-consistent calculation

          k = 0.0000 0.0000 0.0000 ( 20170 PWs)   bands (ev):

   -18.1094 -14.7032 -10.1877  -9.9567  -8.7488  -7.7535  -7.5229

     highest occupied level (ev):    -7.5229

!    total energy              =     -29.87456976 Ry
     Harris-Foulkes estimate   =     -29.87456980 Ry
     estimated scf accuracy    <       0.00000016 Ry

     The total energy is the sum of the following terms:

     one-electron contribution =     -86.78082081 Ry
     hartree contribution      =      44.97612873 Ry
     xc contribution           =     -11.18309762 Ry
     ewald contribution        =      23.11321994 Ry

     convergence has been achieved in  11 iterations

     Forces acting on atoms (Ry/au):

     atom    1 type  1   force =    -0.06758993    0.01646671    0.08081311
     atom    2 type  1   force =     0.02724402   -0.00171891   -0.00325401
     atom    3 type  2   force =     0.01895542    0.02425069    0.00415520
     atom    4 type  2   force =    -0.02526466   -0.00405473   -0.01947972
     atom    5 type  2   force =     0.06304678    0.00122161   -0.04870997
     atom    6 type  2   force =     0.00927370   -0.05789986   -0.00469369
     atom    7 type  2   force =     0.01129335    0.02480458   -0.01144596
     atom    8 type  2   force =    -0.03695869   -0.00307008    0.00261505

     Total force =     0.161835     Total SCF correction =     0.000279


     entering subroutine stress ...

          total   stress  (Ry/bohr**3)                   (kbar)     P=   -5.16
  -0.00003512   0.00000375   0.00001028         -5.17      0.55      1.51
   0.00000375  -0.00005262  -0.00000906          0.55     -7.74     -1.33
   0.00001028  -0.00000906  -0.00001745          1.51     -1.33     -2.57


     init_run     :      2.11s CPU      2.18s WALL (       1 calls)
     electrons    :     24.92s CPU     25.23s WALL (       1 calls)
     forces       :      0.91s CPU      0.91s WALL (       1 calls)
     stress       :      1.15s CPU      1.19s WALL (       1 calls)

     Called by init_run:
     wfcinit      :      0.31s CPU      0.32s WALL (       1 calls)
     potinit      :      1.44s CPU      1.48s WALL (       1 calls)

     Called by electrons:
     c_bands      :      8.97s CPU      9.03s WALL (      11 calls)
     sum_band     :      2.41s CPU      2.43s WALL (      11 calls)
     v_of_rho     :     13.20s CPU     13.40s WALL (      12 calls)
     mix_rho      :      1.36s CPU      1.41s WALL (      11 calls)

     Called by c_bands:
     init_us_2    :      0.32s CPU      0.32s WALL (      23 calls)
     regterg      :      8.40s CPU      8.46s WALL (      11 calls)

     Called by *egterg:
     h_psi        :      8.17s CPU      8.23s WALL (      39 calls)
     g_psi        :      0.07s CPU      0.08s WALL (      27 calls)
     rdiaghg      :      0.01s CPU      0.01s WALL (      38 calls)

     Called by h_psi:
     add_vuspsi   :      0.13s CPU      0.13s WALL (      39 calls)

     General routines
     calbec       :      0.15s CPU      0.16s WALL (      44 calls)
     fft          :      3.85s CPU      3.94s WALL (     139 calls)
     fftw         :      6.87s CPU      6.91s WALL (     328 calls)

     Parallel routines
     fft_scatter  :      2.96s CPU      3.00s WALL (     467 calls)

     PWSCF        :    29.11s CPU        29.56s WALL


   This run was terminated on:  17:33: 1   4Jul2020            

=------------------------------------------------------------------------------=
   JOB DONE.
=------------------------------------------------------------------------------=
