
     Program PWSCF v.5.1.1 starts on  4Jul2020 at 16:12:15 

     This program is part of the open-source Quantum ESPRESSO suite
     for quantum simulation of materials; please cite
         "P. Giannozzi et al., J. Phys.:Condens. Matter 21 395502 (2009);
          URL http://www.quantum-espresso.org", 
     in publications or presentations arising from this work. More details at
     http://www.quantum-espresso.org/quote

     Parallel version (MPI), running on     1 processors
     Waiting for input...
     Reading input from standard input
Warning: card &IONS ignored
Warning: card / ignored
Warning: card &CELL ignored
Warning: card / ignored

     Current dimensions of program PWSCF are:
     Max number of different atomic species (ntypx) = 10
     Max number of k-points (npk) =  40000
     Max angular momentum in pseudopotentials (lmaxx) =  3

     gamma-point specific algorithms are used

     Subspace diagonalization in iterative solution of the eigenvalue problem:
     a serial algorithm will be used


     G-vector sticks info
     --------------------
     sticks:   dense  smooth     PW     G-vecs:    dense   smooth      PW
     Sum        5689    5689   1433               322453   322453   40339
     Tot        2845    2845    717



     bravais-lattice index     =            1
     lattice parameter (alat)  =      18.8973  a.u.
     unit-cell volume          =    6748.3346 (a.u.)^3
     number of atoms/cell      =            8
     number of atomic types    =            2
     number of electrons       =        14.00
     number of Kohn-Sham states=            7
     kinetic-energy cutoff     =      50.0000  Ry
     charge density cutoff     =     200.0000  Ry
     convergence threshold     =      1.0E-06
     mixing beta               =       0.2000
     number of iterations used =            8  plain     mixing
     Exchange-correlation      = PBE ( 1  4  3  4 0 0)

     celldm(1)=  18.897261  celldm(2)=   0.000000  celldm(3)=   0.000000
     celldm(4)=   0.000000  celldm(5)=   0.000000  celldm(6)=   0.000000

     crystal axes: (cart. coord. in units of alat)
               a(1) = (   1.000000   0.000000   0.000000 )  
               a(2) = (   0.000000   1.000000   0.000000 )  
               a(3) = (   0.000000   0.000000   1.000000 )  

     reciprocal axes: (cart. coord. in units 2 pi/alat)
               b(1) = (  1.000000  0.000000  0.000000 )  
               b(2) = (  0.000000  1.000000  0.000000 )  
               b(3) = (  0.000000  0.000000  1.000000 )  


     PseudoPot. # 1 for C  read from file:
     ../../pseudo-potentials/C_ONCV_PBE-1.0.upf
     MD5 check sum: 40f8c33130f0afa4272e9dcc1c4fb0df
     Pseudo is Norm-conserving, Zval =  4.0
     Generated using ONCVPSP code by D. R. Hamann
     Using radial grid of  602 points,  4 beta functions with: 
                l(1) =   0
                l(2) =   0
                l(3) =   1
                l(4) =   1

     PseudoPot. # 2 for H  read from file:
     ../../pseudo-potentials/H_ONCV_PBE-1.0.upf
     MD5 check sum: 10f92816c437af099bca1a183851adc8
     Pseudo is Norm-conserving, Zval =  1.0
     Generated using ONCVPSP code by D. R. Hamann
     Using radial grid of  602 points,  2 beta functions with: 
                l(1) =   0
                l(2) =   0

     atomic species   valence    mass     pseudopotential
        C              4.00     1.00000     C ( 1.00)
        H              1.00     1.00000     H ( 1.00)

     No symmetry found



   Cartesian axes

     site n.     atom                  positions (alat units)
         1           C   tau(   1) = (   1.7554360   2.1768240   1.9995000  )
         2           C   tau(   2) = (   1.8378400   2.3051440   2.0006520  )
         3           H   tau(   3) = (   1.7991880   2.1012000   2.0645520  )
         4           H   tau(   4) = (   1.7653560   2.1389400   1.8967280  )
         5           H   tau(   5) = (   1.6475200   2.1872160   2.0299360  )
         6           H   tau(   6) = (   1.8412520   2.3563360   2.0962120  )
         7           H   tau(   7) = (   1.7980080   2.3618760   1.9125000  )
         8           H   tau(   8) = (   1.9419720   2.2896400   1.9982480  )

     number of k points=     1
                       cart. coord. in units 2pi/alat
        k(    1) = (   0.0000000   0.0000000   0.0000000), wk =   2.0000000

     Dense  grid:   161227 G-vectors     FFT dimensions: (  90,  90,  90)

     Largest allocated arrays     est. size (Mb)     dimensions
        Kohn-Sham Wavefunctions         2.15 Mb     (   20170,    7)
        NL pseudopotentials             8.62 Mb     (   20170,   28)
        Each V/rho on FFT grid         11.12 Mb     (  729000)
        Each G-vector array             1.23 Mb     (  161227)
        G-vector shells                 0.01 Mb     (    1510)
     Largest temporary arrays     est. size (Mb)     dimensions
        Auxiliary wavefunctions         4.31 Mb     (   20170,   28)
        Each subspace H/S matrix        0.01 Mb     (      28,   28)
        Each <psi_i|beta_j> matrix      0.00 Mb     (      28,    7)
        Arrays for rho mixing          88.99 Mb     (  729000,    8)

     Initial potential from superposition of free atoms
     Check: negative starting charge=   -0.000639

     starting charge   13.97327, renormalised to   14.00000

     negative rho (up, down):  6.399E-04 0.000E+00
     Starting wfc are random

     total cpu time spent up to now is        1.9 secs

     per-process dynamical memory:   141.6 Mb

     Self-consistent Calculation

     iteration #  1     ecut=    50.00 Ry     beta=0.20
     Davidson diagonalization with overlap
     ethr =  1.00E-02,  avg # of iterations =  9.0

     negative rho (up, down):  4.719E-04 0.000E+00

     total cpu time spent up to now is        5.2 secs

     total energy              =     -29.99398376 Ry
     Harris-Foulkes estimate   =     -30.25203343 Ry
     estimated scf accuracy    <       0.99053615 Ry

     iteration #  2     ecut=    50.00 Ry     beta=0.20
     Davidson diagonalization with overlap
     ethr =  7.08E-03,  avg # of iterations =  1.0

     negative rho (up, down):  1.665E-04 0.000E+00

     total cpu time spent up to now is        7.1 secs

     total energy              =     -29.79871921 Ry
     Harris-Foulkes estimate   =     -30.02163560 Ry
     estimated scf accuracy    <       0.40660979 Ry

     iteration #  3     ecut=    50.00 Ry     beta=0.20
     Davidson diagonalization with overlap
     ethr =  2.90E-03,  avg # of iterations =  2.0

     negative rho (up, down):  2.832E-04 0.000E+00

     total cpu time spent up to now is        9.1 secs

     total energy              =     -29.95151862 Ry
     Harris-Foulkes estimate   =     -29.90545119 Ry
     estimated scf accuracy    <       0.06976595 Ry

     iteration #  4     ecut=    50.00 Ry     beta=0.20
     Davidson diagonalization with overlap
     ethr =  4.98E-04,  avg # of iterations =  2.0

     negative rho (up, down):  8.626E-06 0.000E+00

     total cpu time spent up to now is       11.0 secs

     total energy              =     -29.84430670 Ry
     Harris-Foulkes estimate   =     -29.96816192 Ry
     estimated scf accuracy    <       0.27350397 Ry

     iteration #  5     ecut=    50.00 Ry     beta=0.20
     Davidson diagonalization with overlap
     ethr =  4.98E-04,  avg # of iterations =  2.0

     negative rho (up, down):  2.136E-06 0.000E+00

     total cpu time spent up to now is       13.0 secs

     total energy              =     -29.88176779 Ry
     Harris-Foulkes estimate   =     -29.88236094 Ry
     estimated scf accuracy    <       0.00342955 Ry

     iteration #  6     ecut=    50.00 Ry     beta=0.20
     Davidson diagonalization with overlap
     ethr =  2.45E-05,  avg # of iterations =  2.0

     negative rho (up, down):  5.388E-07 0.000E+00

     total cpu time spent up to now is       14.9 secs

     total energy              =     -29.88125172 Ry
     Harris-Foulkes estimate   =     -29.88212045 Ry
     estimated scf accuracy    <       0.00174667 Ry

     iteration #  7     ecut=    50.00 Ry     beta=0.20
     Davidson diagonalization with overlap
     ethr =  1.25E-05,  avg # of iterations =  2.0

     negative rho (up, down):  1.422E-08 0.000E+00

     total cpu time spent up to now is       17.0 secs

     total energy              =     -29.88169967 Ry
     Harris-Foulkes estimate   =     -29.88171790 Ry
     estimated scf accuracy    <       0.00005852 Ry

     iteration #  8     ecut=    50.00 Ry     beta=0.20
     Davidson diagonalization with overlap
     ethr =  4.18E-07,  avg # of iterations =  2.0

     total cpu time spent up to now is       19.0 secs

     total energy              =     -29.88171081 Ry
     Harris-Foulkes estimate   =     -29.88171443 Ry
     estimated scf accuracy    <       0.00001084 Ry

     iteration #  9     ecut=    50.00 Ry     beta=0.20
     Davidson diagonalization with overlap
     ethr =  7.74E-08,  avg # of iterations =  2.0

     total cpu time spent up to now is       21.1 secs

     total energy              =     -29.88171243 Ry
     Harris-Foulkes estimate   =     -29.88171242 Ry
     estimated scf accuracy    <       0.00000106 Ry

     iteration # 10     ecut=    50.00 Ry     beta=0.20
     Davidson diagonalization with overlap
     ethr =  7.57E-09,  avg # of iterations =  2.0

     total cpu time spent up to now is       22.9 secs

     End of self-consistent calculation

          k = 0.0000 0.0000 0.0000 ( 20170 PWs)   bands (ev):

   -18.3474 -14.7742 -10.6926 -10.0250  -8.5980  -7.8561  -7.5142

     highest occupied level (ev):    -7.5142

!    total energy              =     -29.88171245 Ry
     Harris-Foulkes estimate   =     -29.88171267 Ry
     estimated scf accuracy    <       0.00000054 Ry

     The total energy is the sum of the following terms:

     one-electron contribution =     -89.05411088 Ry
     hartree contribution      =      46.13707919 Ry
     xc contribution           =     -11.31240825 Ry
     ewald contribution        =      24.34772749 Ry

     convergence has been achieved in  10 iterations

     Forces acting on atoms (Ry/au):

     atom    1 type  1   force =     0.00295537   -0.00866660    0.00567016
     atom    2 type  1   force =    -0.06514367    0.00847873   -0.00677280
     atom    3 type  2   force =     0.00169404   -0.01025463    0.00960295
     atom    4 type  2   force =    -0.01917304   -0.01110287    0.00398522
     atom    5 type  2   force =     0.03174077    0.00598783   -0.01721509
     atom    6 type  2   force =    -0.04381241    0.02850006    0.01283178
     atom    7 type  2   force =     0.02987603    0.01577176    0.03662693
     atom    8 type  2   force =     0.06186292   -0.02871428   -0.04472914

     Total force =     0.136219     Total SCF correction =     0.000570


     entering subroutine stress ...

          total   stress  (Ry/bohr**3)                   (kbar)     P=   -1.67
  -0.00001564  -0.00000673  -0.00001104         -2.30     -0.99     -1.62
  -0.00000673   0.00000471   0.00000590         -0.99      0.69      0.87
  -0.00001104   0.00000590  -0.00002308         -1.62      0.87     -3.40


     init_run     :      1.84s CPU      1.90s WALL (       1 calls)
     electrons    :     20.67s CPU     20.96s WALL (       1 calls)
     forces       :      1.09s CPU      1.09s WALL (       1 calls)
     stress       :      1.41s CPU      1.44s WALL (       1 calls)

     Called by init_run:
     wfcinit      :      0.20s CPU      0.21s WALL (       1 calls)
     potinit      :      1.31s CPU      1.34s WALL (       1 calls)

     Called by electrons:
     c_bands      :      6.29s CPU      6.32s WALL (      10 calls)
     sum_band     :      1.63s CPU      1.64s WALL (      10 calls)
     v_of_rho     :     12.92s CPU     13.13s WALL (      11 calls)
     mix_rho      :      0.83s CPU      0.90s WALL (      10 calls)

     Called by c_bands:
     init_us_2    :      0.27s CPU      0.27s WALL (      21 calls)
     regterg      :      5.77s CPU      5.80s WALL (      10 calls)

     Called by *egterg:
     h_psi        :      5.58s CPU      5.61s WALL (      37 calls)
     g_psi        :      0.08s CPU      0.08s WALL (      26 calls)
     rdiaghg      :      0.01s CPU      0.01s WALL (      36 calls)

     Called by h_psi:
     add_vuspsi   :      0.08s CPU      0.08s WALL (      37 calls)

     General routines
     calbec       :      0.11s CPU      0.11s WALL (      42 calls)
     fft          :      3.39s CPU      3.47s WALL (     128 calls)
     fftw         :      5.06s CPU      5.08s WALL (     312 calls)

     Parallel routines
     fft_scatter  :      1.93s CPU      1.97s WALL (     440 calls)

     PWSCF        :    25.04s CPU        25.45s WALL


   This run was terminated on:  16:12:41   4Jul2020            

=------------------------------------------------------------------------------=
   JOB DONE.
=------------------------------------------------------------------------------=
