
     Program PWSCF v.5.1.1 starts on  4Jul2020 at 16:12:52 

     This program is part of the open-source Quantum ESPRESSO suite
     for quantum simulation of materials; please cite
         "P. Giannozzi et al., J. Phys.:Condens. Matter 21 395502 (2009);
          URL http://www.quantum-espresso.org", 
     in publications or presentations arising from this work. More details at
     http://www.quantum-espresso.org/quote

     Parallel version (MPI), running on     1 processors
     Waiting for input...
     Reading input from standard input
Warning: card &IONS ignored
Warning: card / ignored
Warning: card &CELL ignored
Warning: card / ignored

     Current dimensions of program PWSCF are:
     Max number of different atomic species (ntypx) = 10
     Max number of k-points (npk) =  40000
     Max angular momentum in pseudopotentials (lmaxx) =  3

     gamma-point specific algorithms are used

     Subspace diagonalization in iterative solution of the eigenvalue problem:
     a serial algorithm will be used


     G-vector sticks info
     --------------------
     sticks:   dense  smooth     PW     G-vecs:    dense   smooth      PW
     Sum        5689    5689   1433               322453   322453   40339
     Tot        2845    2845    717



     bravais-lattice index     =            1
     lattice parameter (alat)  =      18.8973  a.u.
     unit-cell volume          =    6748.3346 (a.u.)^3
     number of atoms/cell      =            8
     number of atomic types    =            2
     number of electrons       =        14.00
     number of Kohn-Sham states=            7
     kinetic-energy cutoff     =      50.0000  Ry
     charge density cutoff     =     200.0000  Ry
     convergence threshold     =      1.0E-06
     mixing beta               =       0.2000
     number of iterations used =            8  plain     mixing
     Exchange-correlation      = PBE ( 1  4  3  4 0 0)

     celldm(1)=  18.897261  celldm(2)=   0.000000  celldm(3)=   0.000000
     celldm(4)=   0.000000  celldm(5)=   0.000000  celldm(6)=   0.000000

     crystal axes: (cart. coord. in units of alat)
               a(1) = (   1.000000   0.000000   0.000000 )  
               a(2) = (   0.000000   1.000000   0.000000 )  
               a(3) = (   0.000000   0.000000   1.000000 )  

     reciprocal axes: (cart. coord. in units 2 pi/alat)
               b(1) = (  1.000000  0.000000  0.000000 )  
               b(2) = (  0.000000  1.000000  0.000000 )  
               b(3) = (  0.000000  0.000000  1.000000 )  


     PseudoPot. # 1 for C  read from file:
     ../../pseudo-potentials/C_ONCV_PBE-1.0.upf
     MD5 check sum: 40f8c33130f0afa4272e9dcc1c4fb0df
     Pseudo is Norm-conserving, Zval =  4.0
     Generated using ONCVPSP code by D. R. Hamann
     Using radial grid of  602 points,  4 beta functions with: 
                l(1) =   0
                l(2) =   0
                l(3) =   1
                l(4) =   1

     PseudoPot. # 2 for H  read from file:
     ../../pseudo-potentials/H_ONCV_PBE-1.0.upf
     MD5 check sum: 10f92816c437af099bca1a183851adc8
     Pseudo is Norm-conserving, Zval =  1.0
     Generated using ONCVPSP code by D. R. Hamann
     Using radial grid of  602 points,  2 beta functions with: 
                l(1) =   0
                l(2) =   0

     atomic species   valence    mass     pseudopotential
        C              4.00     1.00000     C ( 1.00)
        H              1.00     1.00000     H ( 1.00)

     No symmetry found



   Cartesian axes

     site n.     atom                  positions (alat units)
         1           C   tau(   1) = (   1.7531320   2.1788560   2.0001320  )
         2           C   tau(   2) = (   1.8436160   2.3006160   2.0032680  )
         3           H   tau(   3) = (   1.6950240   2.1637920   2.0945000  )
         4           H   tau(   4) = (   1.7933120   2.0814000   1.9668040  )
         5           H   tau(   5) = (   1.6955720   2.2009520   1.9063400  )
         6           H   tau(   6) = (   1.9512760   2.2913040   2.0062600  )
         7           H   tau(   7) = (   1.7973160   2.3702360   2.0742960  )
         8           H   tau(   8) = (   1.8193600   2.3572680   1.9113000  )

     number of k points=     1
                       cart. coord. in units 2pi/alat
        k(    1) = (   0.0000000   0.0000000   0.0000000), wk =   2.0000000

     Dense  grid:   161227 G-vectors     FFT dimensions: (  90,  90,  90)

     Largest allocated arrays     est. size (Mb)     dimensions
        Kohn-Sham Wavefunctions         2.15 Mb     (   20170,    7)
        NL pseudopotentials             8.62 Mb     (   20170,   28)
        Each V/rho on FFT grid         11.12 Mb     (  729000)
        Each G-vector array             1.23 Mb     (  161227)
        G-vector shells                 0.01 Mb     (    1510)
     Largest temporary arrays     est. size (Mb)     dimensions
        Auxiliary wavefunctions         4.31 Mb     (   20170,   28)
        Each subspace H/S matrix        0.01 Mb     (      28,   28)
        Each <psi_i|beta_j> matrix      0.00 Mb     (      28,    7)
        Arrays for rho mixing          88.99 Mb     (  729000,    8)

     Initial potential from superposition of free atoms
     Check: negative starting charge=   -0.000650

     starting charge   13.97327, renormalised to   14.00000

     negative rho (up, down):  6.513E-04 0.000E+00
     Starting wfc are random

     total cpu time spent up to now is        2.1 secs

     per-process dynamical memory:   141.6 Mb

     Self-consistent Calculation

     iteration #  1     ecut=    50.00 Ry     beta=0.20
     Davidson diagonalization with overlap
     ethr =  1.00E-02,  avg # of iterations =  9.0

     negative rho (up, down):  4.368E-04 0.000E+00

     total cpu time spent up to now is        5.4 secs

     total energy              =     -29.97762803 Ry
     Harris-Foulkes estimate   =     -30.21753859 Ry
     estimated scf accuracy    <       0.93123550 Ry

     iteration #  2     ecut=    50.00 Ry     beta=0.20
     Davidson diagonalization with overlap
     ethr =  6.65E-03,  avg # of iterations =  1.0

     negative rho (up, down):  1.256E-04 0.000E+00

     total cpu time spent up to now is        7.3 secs

     total energy              =     -29.76592901 Ry
     Harris-Foulkes estimate   =     -30.00368058 Ry
     estimated scf accuracy    <       0.41172899 Ry

     iteration #  3     ecut=    50.00 Ry     beta=0.20
     Davidson diagonalization with overlap
     ethr =  2.94E-03,  avg # of iterations =  2.0

     negative rho (up, down):  1.582E-04 0.000E+00

     total cpu time spent up to now is        9.4 secs

     total energy              =     -29.93456324 Ry
     Harris-Foulkes estimate   =     -29.89411285 Ry
     estimated scf accuracy    <       0.08987948 Ry

     iteration #  4     ecut=    50.00 Ry     beta=0.20
     Davidson diagonalization with overlap
     ethr =  6.42E-04,  avg # of iterations =  2.0

     negative rho (up, down):  2.056E-05 0.000E+00

     total cpu time spent up to now is       11.4 secs

     total energy              =     -29.83189458 Ry
     Harris-Foulkes estimate   =     -29.94599516 Ry
     estimated scf accuracy    <       0.26142438 Ry

     iteration #  5     ecut=    50.00 Ry     beta=0.20
     Davidson diagonalization with overlap
     ethr =  6.42E-04,  avg # of iterations =  2.0

     negative rho (up, down):  1.971E-06 0.000E+00

     total cpu time spent up to now is       13.4 secs

     total energy              =     -29.86434321 Ry
     Harris-Foulkes estimate   =     -29.86652767 Ry
     estimated scf accuracy    <       0.00738166 Ry

     iteration #  6     ecut=    50.00 Ry     beta=0.20
     Davidson diagonalization with overlap
     ethr =  5.27E-05,  avg # of iterations =  2.0

     negative rho (up, down):  1.438E-06 0.000E+00

     total cpu time spent up to now is       15.4 secs

     total energy              =     -29.86415704 Ry
     Harris-Foulkes estimate   =     -29.86508586 Ry
     estimated scf accuracy    <       0.00186735 Ry

     iteration #  7     ecut=    50.00 Ry     beta=0.20
     Davidson diagonalization with overlap
     ethr =  1.33E-05,  avg # of iterations =  2.0

     negative rho (up, down):  3.053E-08 0.000E+00

     total cpu time spent up to now is       17.5 secs

     total energy              =     -29.86471568 Ry
     Harris-Foulkes estimate   =     -29.86479459 Ry
     estimated scf accuracy    <       0.00020611 Ry

     iteration #  8     ecut=    50.00 Ry     beta=0.20
     Davidson diagonalization with overlap
     ethr =  1.47E-06,  avg # of iterations =  2.0

     total cpu time spent up to now is       19.6 secs

     total energy              =     -29.86474747 Ry
     Harris-Foulkes estimate   =     -29.86474965 Ry
     estimated scf accuracy    <       0.00001336 Ry

     iteration #  9     ecut=    50.00 Ry     beta=0.20
     Davidson diagonalization with overlap
     ethr =  9.54E-08,  avg # of iterations =  2.0

     total cpu time spent up to now is       21.6 secs

     total energy              =     -29.86474936 Ry
     Harris-Foulkes estimate   =     -29.86474981 Ry
     estimated scf accuracy    <       0.00000308 Ry

     iteration # 10     ecut=    50.00 Ry     beta=0.20
     Davidson diagonalization with overlap
     ethr =  2.20E-08,  avg # of iterations =  2.0

     total cpu time spent up to now is       23.6 secs

     total energy              =     -29.86474938 Ry
     Harris-Foulkes estimate   =     -29.86475019 Ry
     estimated scf accuracy    <       0.00000186 Ry

     iteration # 11     ecut=    50.00 Ry     beta=0.20
     Davidson diagonalization with overlap
     ethr =  1.33E-08,  avg # of iterations =  2.0

     total cpu time spent up to now is       25.3 secs

     End of self-consistent calculation

          k = 0.0000 0.0000 0.0000 ( 20170 PWs)   bands (ev):

   -18.3937 -14.6698 -10.5020 -10.3027  -8.6671  -7.8128  -7.1916

     highest occupied level (ev):    -7.1916

!    total energy              =     -29.86474968 Ry
     Harris-Foulkes estimate   =     -29.86474975 Ry
     estimated scf accuracy    <       0.00000017 Ry

     The total energy is the sum of the following terms:

     one-electron contribution =     -88.83928984 Ry
     hartree contribution      =      46.02945447 Ry
     xc contribution           =     -11.28223396 Ry
     ewald contribution        =      24.22731965 Ry

     convergence has been achieved in  11 iterations

     Forces acting on atoms (Ry/au):

     atom    1 type  1   force =    -0.01887855   -0.02632430   -0.04907626
     atom    2 type  1   force =    -0.04137374    0.04164950   -0.02776036
     atom    3 type  2   force =     0.00399501    0.00310667   -0.03397678
     atom    4 type  2   force =     0.02368134    0.00720474    0.02360962
     atom    5 type  2   force =    -0.03425078   -0.01535016    0.04564323
     atom    6 type  2   force =     0.01336518   -0.00602782    0.02231128
     atom    7 type  2   force =     0.03038962    0.00080828    0.02363595
     atom    8 type  2   force =     0.02307192   -0.00506692   -0.00438669

     Total force =     0.127632     Total SCF correction =     0.000492


     entering subroutine stress ...

          total   stress  (Ry/bohr**3)                   (kbar)     P=   -2.27
  -0.00000369   0.00001027   0.00000831         -0.54      1.51      1.22
   0.00001027  -0.00000838   0.00000597          1.51     -1.23      0.88
   0.00000831   0.00000597  -0.00003425          1.22      0.88     -5.04


     init_run     :      1.88s CPU      2.02s WALL (       1 calls)
     electrons    :     22.70s CPU     23.24s WALL (       1 calls)
     forces       :      0.98s CPU      1.01s WALL (       1 calls)
     stress       :      1.22s CPU      1.26s WALL (       1 calls)

     Called by init_run:
     wfcinit      :      0.23s CPU      0.25s WALL (       1 calls)
     potinit      :      1.30s CPU      1.38s WALL (       1 calls)

     Called by electrons:
     c_bands      :      7.35s CPU      7.42s WALL (      11 calls)
     sum_band     :      2.16s CPU      2.18s WALL (      11 calls)
     v_of_rho     :     13.01s CPU     13.38s WALL (      12 calls)
     mix_rho      :      1.14s CPU      1.24s WALL (      11 calls)

     Called by c_bands:
     init_us_2    :      0.31s CPU      0.32s WALL (      23 calls)
     regterg      :      6.78s CPU      6.85s WALL (      11 calls)

     Called by *egterg:
     h_psi        :      6.58s CPU      6.62s WALL (      40 calls)
     g_psi        :      0.08s CPU      0.08s WALL (      28 calls)
     rdiaghg      :      0.01s CPU      0.01s WALL (      39 calls)

     Called by h_psi:
     add_vuspsi   :      0.10s CPU      0.10s WALL (      40 calls)

     General routines
     calbec       :      0.13s CPU      0.14s WALL (      45 calls)
     fft          :      3.45s CPU      3.59s WALL (     139 calls)
     fftw         :      5.96s CPU      5.99s WALL (     336 calls)

     Parallel routines
     fft_scatter  :      2.16s CPU      2.23s WALL (     475 calls)

     PWSCF        :    26.82s CPU        27.59s WALL


   This run was terminated on:  16:13:20   4Jul2020            

=------------------------------------------------------------------------------=
   JOB DONE.
=------------------------------------------------------------------------------=
