
     Program PWSCF v.5.1.1 starts on  4Jul2020 at 16:12:16 

     This program is part of the open-source Quantum ESPRESSO suite
     for quantum simulation of materials; please cite
         "P. Giannozzi et al., J. Phys.:Condens. Matter 21 395502 (2009);
          URL http://www.quantum-espresso.org", 
     in publications or presentations arising from this work. More details at
     http://www.quantum-espresso.org/quote

     Parallel version (MPI), running on     1 processors
     Waiting for input...
     Reading input from standard input
Warning: card &IONS ignored
Warning: card / ignored
Warning: card &CELL ignored
Warning: card / ignored

     Current dimensions of program PWSCF are:
     Max number of different atomic species (ntypx) = 10
     Max number of k-points (npk) =  40000
     Max angular momentum in pseudopotentials (lmaxx) =  3

     gamma-point specific algorithms are used

     Subspace diagonalization in iterative solution of the eigenvalue problem:
     a serial algorithm will be used


     G-vector sticks info
     --------------------
     sticks:   dense  smooth     PW     G-vecs:    dense   smooth      PW
     Sum        5689    5689   1433               322453   322453   40339
     Tot        2845    2845    717



     bravais-lattice index     =            1
     lattice parameter (alat)  =      18.8973  a.u.
     unit-cell volume          =    6748.3346 (a.u.)^3
     number of atoms/cell      =            8
     number of atomic types    =            2
     number of electrons       =        14.00
     number of Kohn-Sham states=            7
     kinetic-energy cutoff     =      50.0000  Ry
     charge density cutoff     =     200.0000  Ry
     convergence threshold     =      1.0E-06
     mixing beta               =       0.2000
     number of iterations used =            8  plain     mixing
     Exchange-correlation      = PBE ( 1  4  3  4 0 0)

     celldm(1)=  18.897261  celldm(2)=   0.000000  celldm(3)=   0.000000
     celldm(4)=   0.000000  celldm(5)=   0.000000  celldm(6)=   0.000000

     crystal axes: (cart. coord. in units of alat)
               a(1) = (   1.000000   0.000000   0.000000 )  
               a(2) = (   0.000000   1.000000   0.000000 )  
               a(3) = (   0.000000   0.000000   1.000000 )  

     reciprocal axes: (cart. coord. in units 2 pi/alat)
               b(1) = (  1.000000  0.000000  0.000000 )  
               b(2) = (  0.000000  1.000000  0.000000 )  
               b(3) = (  0.000000  0.000000  1.000000 )  


     PseudoPot. # 1 for C  read from file:
     ../../pseudo-potentials/C_ONCV_PBE-1.0.upf
     MD5 check sum: 40f8c33130f0afa4272e9dcc1c4fb0df
     Pseudo is Norm-conserving, Zval =  4.0
     Generated using ONCVPSP code by D. R. Hamann
     Using radial grid of  602 points,  4 beta functions with: 
                l(1) =   0
                l(2) =   0
                l(3) =   1
                l(4) =   1

     PseudoPot. # 2 for H  read from file:
     ../../pseudo-potentials/H_ONCV_PBE-1.0.upf
     MD5 check sum: 10f92816c437af099bca1a183851adc8
     Pseudo is Norm-conserving, Zval =  1.0
     Generated using ONCVPSP code by D. R. Hamann
     Using radial grid of  602 points,  2 beta functions with: 
                l(1) =   0
                l(2) =   0

     atomic species   valence    mass     pseudopotential
        C              4.00     1.00000     C ( 1.00)
        H              1.00     1.00000     H ( 1.00)

     No symmetry found



   Cartesian axes

     site n.     atom                  positions (alat units)
         1           C   tau(   1) = (   1.7469400   2.1832760   2.0041960  )
         2           C   tau(   2) = (   1.8441160   2.2999480   1.9959000  )
         3           H   tau(   3) = (   1.7443360   2.1359520   2.1037960  )
         4           H   tau(   4) = (   1.7946760   2.1043880   1.9342480  )
         5           H   tau(   5) = (   1.6429360   2.2005000   1.9780360  )
         6           H   tau(   6) = (   1.8082600   2.4029680   1.9719520  )
         7           H   tau(   7) = (   1.9261400   2.2650760   1.9259680  )
         8           H   tau(   8) = (   1.9034000   2.3113320   2.0848520  )

     number of k points=     1
                       cart. coord. in units 2pi/alat
        k(    1) = (   0.0000000   0.0000000   0.0000000), wk =   2.0000000

     Dense  grid:   161227 G-vectors     FFT dimensions: (  90,  90,  90)

     Largest allocated arrays     est. size (Mb)     dimensions
        Kohn-Sham Wavefunctions         2.15 Mb     (   20170,    7)
        NL pseudopotentials             8.62 Mb     (   20170,   28)
        Each V/rho on FFT grid         11.12 Mb     (  729000)
        Each G-vector array             1.23 Mb     (  161227)
        G-vector shells                 0.01 Mb     (    1510)
     Largest temporary arrays     est. size (Mb)     dimensions
        Auxiliary wavefunctions         4.31 Mb     (   20170,   28)
        Each subspace H/S matrix        0.01 Mb     (      28,   28)
        Each <psi_i|beta_j> matrix      0.00 Mb     (      28,    7)
        Arrays for rho mixing          88.99 Mb     (  729000,    8)

     Initial potential from superposition of free atoms
     Check: negative starting charge=   -0.000639

     starting charge   13.97327, renormalised to   14.00000

     negative rho (up, down):  6.405E-04 0.000E+00
     Starting wfc are random

     total cpu time spent up to now is        2.2 secs

     per-process dynamical memory:   141.6 Mb

     Self-consistent Calculation

     iteration #  1     ecut=    50.00 Ry     beta=0.20
     Davidson diagonalization with overlap
     ethr =  1.00E-02,  avg # of iterations =  9.0

     negative rho (up, down):  4.600E-04 0.000E+00

     total cpu time spent up to now is        5.5 secs

     total energy              =     -29.98646482 Ry
     Harris-Foulkes estimate   =     -30.22962687 Ry
     estimated scf accuracy    <       0.93587861 Ry

     iteration #  2     ecut=    50.00 Ry     beta=0.20
     Davidson diagonalization with overlap
     ethr =  6.68E-03,  avg # of iterations =  1.0

     negative rho (up, down):  1.485E-04 0.000E+00

     total cpu time spent up to now is        7.5 secs

     total energy              =     -29.79068416 Ry
     Harris-Foulkes estimate   =     -30.01105819 Ry
     estimated scf accuracy    <       0.39560869 Ry

     iteration #  3     ecut=    50.00 Ry     beta=0.20
     Davidson diagonalization with overlap
     ethr =  2.83E-03,  avg # of iterations =  2.0

     negative rho (up, down):  2.289E-04 0.000E+00

     total cpu time spent up to now is        9.6 secs

     total energy              =     -29.96017086 Ry
     Harris-Foulkes estimate   =     -29.90356125 Ry
     estimated scf accuracy    <       0.07906326 Ry

     iteration #  4     ecut=    50.00 Ry     beta=0.20
     Davidson diagonalization with overlap
     ethr =  5.65E-04,  avg # of iterations =  2.0

     negative rho (up, down):  6.834E-06 0.000E+00

     total cpu time spent up to now is       11.6 secs

     total energy              =     -29.81599182 Ry
     Harris-Foulkes estimate   =     -29.98206573 Ry
     estimated scf accuracy    <       0.34070676 Ry

     iteration #  5     ecut=    50.00 Ry     beta=0.20
     Davidson diagonalization with overlap
     ethr =  5.65E-04,  avg # of iterations =  3.0

     negative rho (up, down):  2.239E-06 0.000E+00

     total cpu time spent up to now is       13.8 secs

     total energy              =     -29.87743374 Ry
     Harris-Foulkes estimate   =     -29.87747932 Ry
     estimated scf accuracy    <       0.00091290 Ry

     iteration #  6     ecut=    50.00 Ry     beta=0.20
     Davidson diagonalization with overlap
     ethr =  6.52E-06,  avg # of iterations =  2.0

     negative rho (up, down):  3.910E-07 0.000E+00

     total cpu time spent up to now is       15.8 secs

     total energy              =     -29.87679602 Ry
     Harris-Foulkes estimate   =     -29.87803437 Ry
     estimated scf accuracy    <       0.00218428 Ry

     iteration #  7     ecut=    50.00 Ry     beta=0.20
     Davidson diagonalization with overlap
     ethr =  6.52E-06,  avg # of iterations =  3.0

     total cpu time spent up to now is       18.0 secs

     total energy              =     -29.87732590 Ry
     Harris-Foulkes estimate   =     -29.87738549 Ry
     estimated scf accuracy    <       0.00016918 Ry

     iteration #  8     ecut=    50.00 Ry     beta=0.20
     Davidson diagonalization with overlap
     ethr =  1.21E-06,  avg # of iterations =  2.0

     total cpu time spent up to now is       19.9 secs

     total energy              =     -29.87733088 Ry
     Harris-Foulkes estimate   =     -29.87734609 Ry
     estimated scf accuracy    <       0.00003030 Ry

     iteration #  9     ecut=    50.00 Ry     beta=0.20
     Davidson diagonalization with overlap
     ethr =  2.16E-07,  avg # of iterations =  2.0

     total cpu time spent up to now is       22.0 secs

     total energy              =     -29.87734015 Ry
     Harris-Foulkes estimate   =     -29.87734102 Ry
     estimated scf accuracy    <       0.00000330 Ry

     iteration # 10     ecut=    50.00 Ry     beta=0.20
     Davidson diagonalization with overlap
     ethr =  2.36E-08,  avg # of iterations =  1.0

     total cpu time spent up to now is       23.8 secs

     total energy              =     -29.87733988 Ry
     Harris-Foulkes estimate   =     -29.87734039 Ry
     estimated scf accuracy    <       0.00000110 Ry

     iteration # 11     ecut=    50.00 Ry     beta=0.20
     Davidson diagonalization with overlap
     ethr =  7.87E-09,  avg # of iterations =  2.0

     total cpu time spent up to now is       25.4 secs

     End of self-consistent calculation

          k = 0.0000 0.0000 0.0000 ( 20170 PWs)   bands (ev):

   -18.2691 -14.7121 -10.4210 -10.0185  -8.7302  -7.9388  -7.2730

     highest occupied level (ev):    -7.2730

!    total energy              =     -29.87734016 Ry
     Harris-Foulkes estimate   =     -29.87734027 Ry
     estimated scf accuracy    <       0.00000015 Ry

     The total energy is the sum of the following terms:

     one-electron contribution =     -88.16411184 Ry
     hartree contribution      =      45.68871300 Ry
     xc contribution           =     -11.25488818 Ry
     ewald contribution        =      23.85294686 Ry

     convergence has been achieved in  11 iterations

     Forces acting on atoms (Ry/au):

     atom    1 type  1   force =     0.03657165   -0.06074127   -0.01992153
     atom    2 type  1   force =     0.04673292    0.00583575   -0.03276101
     atom    3 type  2   force =     0.00285876    0.00660177   -0.00191852
     atom    4 type  2   force =    -0.05029266    0.02740794    0.03491353
     atom    5 type  2   force =    -0.00588608    0.00897071   -0.01485447
     atom    6 type  2   force =    -0.00168436   -0.03078482   -0.00780775
     atom    7 type  2   force =    -0.03068005    0.03819236    0.00257311
     atom    8 type  2   force =     0.00237981    0.00451756    0.03977664

     Total force =     0.136500     Total SCF correction =     0.000415


     entering subroutine stress ...

          total   stress  (Ry/bohr**3)                   (kbar)     P=   -3.19
  -0.00002294   0.00001970   0.00001751         -3.37      2.90      2.58
   0.00001970  -0.00002881  -0.00000903          2.90     -4.24     -1.33
   0.00001751  -0.00000903  -0.00001328          2.58     -1.33     -1.95


     init_run     :      1.97s CPU      2.12s WALL (       1 calls)
     electrons    :     22.74s CPU     23.25s WALL (       1 calls)
     forces       :      0.91s CPU      0.92s WALL (       1 calls)
     stress       :      1.16s CPU      1.21s WALL (       1 calls)

     Called by init_run:
     wfcinit      :      0.22s CPU      0.25s WALL (       1 calls)
     potinit      :      1.39s CPU      1.48s WALL (       1 calls)

     Called by electrons:
     c_bands      :      7.38s CPU      7.43s WALL (      11 calls)
     sum_band     :      1.82s CPU      1.84s WALL (      11 calls)
     v_of_rho     :     13.66s CPU     14.07s WALL (      12 calls)
     mix_rho      :      0.93s CPU      0.99s WALL (      11 calls)

     Called by c_bands:
     init_us_2    :      0.30s CPU      0.32s WALL (      23 calls)
     regterg      :      6.80s CPU      6.84s WALL (      11 calls)

     Called by *egterg:
     h_psi        :      6.58s CPU      6.62s WALL (      41 calls)
     g_psi        :      0.08s CPU      0.09s WALL (      29 calls)
     rdiaghg      :      0.01s CPU      0.01s WALL (      40 calls)

     Called by h_psi:
     add_vuspsi   :      0.09s CPU      0.09s WALL (      41 calls)

     General routines
     calbec       :      0.12s CPU      0.13s WALL (      46 calls)
     fft          :      3.62s CPU      3.79s WALL (     139 calls)
     fftw         :      5.87s CPU      5.89s WALL (     340 calls)

     Parallel routines
     fft_scatter  :      2.25s CPU      2.32s WALL (     479 calls)

     PWSCF        :    26.83s CPU        27.57s WALL


   This run was terminated on:  16:12:43   4Jul2020            

=------------------------------------------------------------------------------=
   JOB DONE.
=------------------------------------------------------------------------------=
