
     Program PWSCF v.5.1.1 starts on  4Jul2020 at 17:33: 6 

     This program is part of the open-source Quantum ESPRESSO suite
     for quantum simulation of materials; please cite
         "P. Giannozzi et al., J. Phys.:Condens. Matter 21 395502 (2009);
          URL http://www.quantum-espresso.org", 
     in publications or presentations arising from this work. More details at
     http://www.quantum-espresso.org/quote

     Parallel version (MPI), running on     1 processors
     Waiting for input...
     Reading input from standard input
Warning: card &IONS ignored
Warning: card / ignored
Warning: card &CELL ignored
Warning: card / ignored

     Current dimensions of program PWSCF are:
     Max number of different atomic species (ntypx) = 10
     Max number of k-points (npk) =  40000
     Max angular momentum in pseudopotentials (lmaxx) =  3

     gamma-point specific algorithms are used

     Subspace diagonalization in iterative solution of the eigenvalue problem:
     a serial algorithm will be used


     G-vector sticks info
     --------------------
     sticks:   dense  smooth     PW     G-vecs:    dense   smooth      PW
     Sum        5689    5689   1433               322453   322453   40339
     Tot        2845    2845    717



     bravais-lattice index     =            1
     lattice parameter (alat)  =      18.8973  a.u.
     unit-cell volume          =    6748.3346 (a.u.)^3
     number of atoms/cell      =            8
     number of atomic types    =            2
     number of electrons       =        14.00
     number of Kohn-Sham states=            7
     kinetic-energy cutoff     =      50.0000  Ry
     charge density cutoff     =     200.0000  Ry
     convergence threshold     =      1.0E-06
     mixing beta               =       0.2000
     number of iterations used =            8  plain     mixing
     Exchange-correlation      = PBE ( 1  4  3  4 0 0)

     celldm(1)=  18.897261  celldm(2)=   0.000000  celldm(3)=   0.000000
     celldm(4)=   0.000000  celldm(5)=   0.000000  celldm(6)=   0.000000

     crystal axes: (cart. coord. in units of alat)
               a(1) = (   1.000000   0.000000   0.000000 )  
               a(2) = (   0.000000   1.000000   0.000000 )  
               a(3) = (   0.000000   0.000000   1.000000 )  

     reciprocal axes: (cart. coord. in units 2 pi/alat)
               b(1) = (  1.000000  0.000000  0.000000 )  
               b(2) = (  0.000000  1.000000  0.000000 )  
               b(3) = (  0.000000  0.000000  1.000000 )  


     PseudoPot. # 1 for C  read from file:
     ../../pseudo-potentials/C_ONCV_PBE-1.0.upf
     MD5 check sum: 40f8c33130f0afa4272e9dcc1c4fb0df
     Pseudo is Norm-conserving, Zval =  4.0
     Generated using ONCVPSP code by D. R. Hamann
     Using radial grid of  602 points,  4 beta functions with: 
                l(1) =   0
                l(2) =   0
                l(3) =   1
                l(4) =   1

     PseudoPot. # 2 for H  read from file:
     ../../pseudo-potentials/H_ONCV_PBE-1.0.upf
     MD5 check sum: 10f92816c437af099bca1a183851adc8
     Pseudo is Norm-conserving, Zval =  1.0
     Generated using ONCVPSP code by D. R. Hamann
     Using radial grid of  602 points,  2 beta functions with: 
                l(1) =   0
                l(2) =   0

     atomic species   valence    mass     pseudopotential
        C              4.00     1.00000     C ( 1.00)
        H              1.00     1.00000     H ( 1.00)

     No symmetry found



   Cartesian axes

     site n.     atom                  positions (alat units)
         1           C   tau(   1) = (   1.7417680   2.1876640   1.9882120  )
         2           C   tau(   2) = (   1.8532640   2.2936600   2.0107240  )
         3           H   tau(   3) = (   1.7303360   2.1544960   1.8843320  )
         4           H   tau(   4) = (   1.6504920   2.2411280   2.0235880  )
         5           H   tau(   5) = (   1.7612080   2.0863160   2.0382880  )
         6           H   tau(   6) = (   1.9438440   2.2613960   2.0530760  )
         7           H   tau(   7) = (   1.8105120   2.3498600   2.0866000  )
         8           H   tau(   8) = (   1.8759600   2.3496560   1.9267800  )

     number of k points=     1
                       cart. coord. in units 2pi/alat
        k(    1) = (   0.0000000   0.0000000   0.0000000), wk =   2.0000000

     Dense  grid:   161227 G-vectors     FFT dimensions: (  90,  90,  90)

     Largest allocated arrays     est. size (Mb)     dimensions
        Kohn-Sham Wavefunctions         2.15 Mb     (   20170,    7)
        NL pseudopotentials             8.62 Mb     (   20170,   28)
        Each V/rho on FFT grid         11.12 Mb     (  729000)
        Each G-vector array             1.23 Mb     (  161227)
        G-vector shells                 0.01 Mb     (    1510)
     Largest temporary arrays     est. size (Mb)     dimensions
        Auxiliary wavefunctions         4.31 Mb     (   20170,   28)
        Each subspace H/S matrix        0.01 Mb     (      28,   28)
        Each <psi_i|beta_j> matrix      0.00 Mb     (      28,    7)
        Arrays for rho mixing          88.99 Mb     (  729000,    8)

     Initial potential from superposition of free atoms
     Check: negative starting charge=   -0.000639

     starting charge   13.97327, renormalised to   14.00000

     negative rho (up, down):  6.399E-04 0.000E+00
     Starting wfc are random

     total cpu time spent up to now is        1.7 secs

     per-process dynamical memory:   141.6 Mb

     Self-consistent Calculation

     iteration #  1     ecut=    50.00 Ry     beta=0.20
     Davidson diagonalization with overlap
     ethr =  1.00E-02,  avg # of iterations =  9.0

     negative rho (up, down):  4.521E-04 0.000E+00

     total cpu time spent up to now is        4.8 secs

     total energy              =     -29.99800237 Ry
     Harris-Foulkes estimate   =     -30.25595575 Ry
     estimated scf accuracy    <       1.00071845 Ry

     iteration #  2     ecut=    50.00 Ry     beta=0.20
     Davidson diagonalization with overlap
     ethr =  7.15E-03,  avg # of iterations =  1.0

     negative rho (up, down):  1.391E-04 0.000E+00

     total cpu time spent up to now is        6.9 secs

     total energy              =     -29.76795928 Ry
     Harris-Foulkes estimate   =     -30.02240668 Ry
     estimated scf accuracy    <       0.44204181 Ry

     iteration #  3     ecut=    50.00 Ry     beta=0.20
     Davidson diagonalization with overlap
     ethr =  3.16E-03,  avg # of iterations =  2.0

     negative rho (up, down):  1.925E-04 0.000E+00

     total cpu time spent up to now is        8.9 secs

     total energy              =     -29.94108507 Ry
     Harris-Foulkes estimate   =     -29.89549106 Ry
     estimated scf accuracy    <       0.08163397 Ry

     iteration #  4     ecut=    50.00 Ry     beta=0.20
     Davidson diagonalization with overlap
     ethr =  5.83E-04,  avg # of iterations =  2.0

     negative rho (up, down):  1.555E-05 0.000E+00

     total cpu time spent up to now is       11.0 secs

     total energy              =     -29.83062031 Ry
     Harris-Foulkes estimate   =     -29.95543283 Ry
     estimated scf accuracy    <       0.27611434 Ry

     iteration #  5     ecut=    50.00 Ry     beta=0.20
     Davidson diagonalization with overlap
     ethr =  5.83E-04,  avg # of iterations =  2.0

     negative rho (up, down):  6.317E-06 0.000E+00

     total cpu time spent up to now is       13.0 secs

     total energy              =     -29.86988258 Ry
     Harris-Foulkes estimate   =     -29.86957449 Ry
     estimated scf accuracy    <       0.00569960 Ry

     iteration #  6     ecut=    50.00 Ry     beta=0.20
     Davidson diagonalization with overlap
     ethr =  4.07E-05,  avg # of iterations =  1.0

     negative rho (up, down):  1.882E-06 0.000E+00

     total cpu time spent up to now is       15.0 secs

     total energy              =     -29.86729209 Ry
     Harris-Foulkes estimate   =     -29.87025486 Ry
     estimated scf accuracy    <       0.00646061 Ry

     iteration #  7     ecut=    50.00 Ry     beta=0.20
     Davidson diagonalization with overlap
     ethr =  4.07E-05,  avg # of iterations =  2.0

     negative rho (up, down):  2.585E-07 0.000E+00

     total cpu time spent up to now is       17.2 secs

     total energy              =     -29.86812480 Ry
     Harris-Foulkes estimate   =     -29.86820867 Ry
     estimated scf accuracy    <       0.00024315 Ry

     iteration #  8     ecut=    50.00 Ry     beta=0.20
     Davidson diagonalization with overlap
     ethr =  1.74E-06,  avg # of iterations =  2.0

     negative rho (up, down):  2.551E-07 0.000E+00

     total cpu time spent up to now is       19.4 secs

     total energy              =     -29.86816211 Ry
     Harris-Foulkes estimate   =     -29.86815963 Ry
     estimated scf accuracy    <       0.00002971 Ry

     iteration #  9     ecut=    50.00 Ry     beta=0.20
     Davidson diagonalization with overlap
     ethr =  2.12E-07,  avg # of iterations =  2.0

     total cpu time spent up to now is       21.6 secs

     total energy              =     -29.86815581 Ry
     Harris-Foulkes estimate   =     -29.86816918 Ry
     estimated scf accuracy    <       0.00003764 Ry

     iteration # 10     ecut=    50.00 Ry     beta=0.20
     Davidson diagonalization with overlap
     ethr =  2.12E-07,  avg # of iterations =  2.0

     total cpu time spent up to now is       23.7 secs

     total energy              =     -29.86815797 Ry
     Harris-Foulkes estimate   =     -29.86815850 Ry
     estimated scf accuracy    <       0.00000305 Ry

     iteration # 11     ecut=    50.00 Ry     beta=0.20
     Davidson diagonalization with overlap
     ethr =  2.18E-08,  avg # of iterations =  1.0

     total cpu time spent up to now is       25.8 secs

     total energy              =     -29.86815721 Ry
     Harris-Foulkes estimate   =     -29.86815808 Ry
     estimated scf accuracy    <       0.00000170 Ry

     iteration # 12     ecut=    50.00 Ry     beta=0.20
     Davidson diagonalization with overlap
     ethr =  1.21E-08,  avg # of iterations =  2.0

     total cpu time spent up to now is       27.7 secs

     End of self-consistent calculation

          k = 0.0000 0.0000 0.0000 ( 20170 PWs)   bands (ev):

   -18.3150 -14.8767 -10.6565 -10.1598  -8.3741  -7.8563  -7.7706

     highest occupied level (ev):    -7.7706

!    total energy              =     -29.86815750 Ry
     Harris-Foulkes estimate   =     -29.86815787 Ry
     estimated scf accuracy    <       0.00000048 Ry

     The total energy is the sum of the following terms:

     one-electron contribution =     -89.24298827 Ry
     hartree contribution      =      46.24605460 Ry
     xc contribution           =     -11.36134707 Ry
     ewald contribution        =      24.49012324 Ry

     convergence has been achieved in  12 iterations

     Forces acting on atoms (Ry/au):

     atom    1 type  1   force =     0.02163929   -0.03076477    0.00754708
     atom    2 type  1   force =    -0.04920435   -0.08632680    0.01277271
     atom    3 type  2   force =    -0.00444071    0.01698548   -0.00896053
     atom    4 type  2   force =     0.00251071   -0.04198454   -0.01146424
     atom    5 type  2   force =    -0.01560185    0.05555453    0.00257201
     atom    6 type  2   force =     0.05560056   -0.04079450    0.01434344
     atom    7 type  2   force =    -0.01972944    0.07508704    0.05346184
     atom    8 type  2   force =     0.00922578    0.05224355   -0.07027231

     Total force =     0.196807     Total SCF correction =     0.000769


     entering subroutine stress ...

          total   stress  (Ry/bohr**3)                   (kbar)     P=   -0.09
  -0.00000140  -0.00000163  -0.00000052         -0.21     -0.24     -0.08
  -0.00000163  -0.00001592  -0.00000225         -0.24     -2.34     -0.33
  -0.00000052  -0.00000225   0.00001540         -0.08     -0.33      2.26


     init_run     :      1.63s CPU      1.69s WALL (       1 calls)
     electrons    :     25.63s CPU     25.95s WALL (       1 calls)
     forces       :      0.99s CPU      0.99s WALL (       1 calls)
     stress       :      1.23s CPU      1.27s WALL (       1 calls)

     Called by init_run:
     wfcinit      :      0.16s CPU      0.16s WALL (       1 calls)
     potinit      :      1.14s CPU      1.17s WALL (       1 calls)

     Called by electrons:
     c_bands      :      7.68s CPU      7.73s WALL (      12 calls)
     sum_band     :      2.36s CPU      2.37s WALL (      12 calls)
     v_of_rho     :     15.05s CPU     15.27s WALL (      13 calls)
     mix_rho      :      1.29s CPU      1.33s WALL (      12 calls)

     Called by c_bands:
     init_us_2    :      0.33s CPU      0.33s WALL (      25 calls)
     regterg      :      7.07s CPU      7.11s WALL (      12 calls)

     Called by *egterg:
     h_psi        :      6.77s CPU      6.81s WALL (      41 calls)
     g_psi        :      0.08s CPU      0.08s WALL (      28 calls)
     rdiaghg      :      0.01s CPU      0.01s WALL (      40 calls)

     Called by h_psi:
     add_vuspsi   :      0.10s CPU      0.10s WALL (      41 calls)

     General routines
     calbec       :      0.13s CPU      0.13s WALL (      46 calls)
     fft          :      4.39s CPU      4.48s WALL (     150 calls)
     fftw         :      6.04s CPU      6.06s WALL (     350 calls)

     Parallel routines
     fft_scatter  :      2.70s CPU      2.75s WALL (     500 calls)

     PWSCF        :    29.51s CPU        29.94s WALL


   This run was terminated on:  17:33:36   4Jul2020            

=------------------------------------------------------------------------------=
   JOB DONE.
=------------------------------------------------------------------------------=
