
     Program PWSCF v.5.1.1 starts on  4Jul2020 at 16:12:52 

     This program is part of the open-source Quantum ESPRESSO suite
     for quantum simulation of materials; please cite
         "P. Giannozzi et al., J. Phys.:Condens. Matter 21 395502 (2009);
          URL http://www.quantum-espresso.org", 
     in publications or presentations arising from this work. More details at
     http://www.quantum-espresso.org/quote

     Parallel version (MPI), running on     1 processors
     Waiting for input...
     Reading input from standard input
Warning: card &IONS ignored
Warning: card / ignored
Warning: card &CELL ignored
Warning: card / ignored

     Current dimensions of program PWSCF are:
     Max number of different atomic species (ntypx) = 10
     Max number of k-points (npk) =  40000
     Max angular momentum in pseudopotentials (lmaxx) =  3

     gamma-point specific algorithms are used

     Subspace diagonalization in iterative solution of the eigenvalue problem:
     a serial algorithm will be used


     G-vector sticks info
     --------------------
     sticks:   dense  smooth     PW     G-vecs:    dense   smooth      PW
     Sum        5689    5689   1433               322453   322453   40339
     Tot        2845    2845    717



     bravais-lattice index     =            1
     lattice parameter (alat)  =      18.8973  a.u.
     unit-cell volume          =    6748.3346 (a.u.)^3
     number of atoms/cell      =            8
     number of atomic types    =            2
     number of electrons       =        14.00
     number of Kohn-Sham states=            7
     kinetic-energy cutoff     =      50.0000  Ry
     charge density cutoff     =     200.0000  Ry
     convergence threshold     =      1.0E-06
     mixing beta               =       0.2000
     number of iterations used =            8  plain     mixing
     Exchange-correlation      = PBE ( 1  4  3  4 0 0)

     celldm(1)=  18.897261  celldm(2)=   0.000000  celldm(3)=   0.000000
     celldm(4)=   0.000000  celldm(5)=   0.000000  celldm(6)=   0.000000

     crystal axes: (cart. coord. in units of alat)
               a(1) = (   1.000000   0.000000   0.000000 )  
               a(2) = (   0.000000   1.000000   0.000000 )  
               a(3) = (   0.000000   0.000000   1.000000 )  

     reciprocal axes: (cart. coord. in units 2 pi/alat)
               b(1) = (  1.000000  0.000000  0.000000 )  
               b(2) = (  0.000000  1.000000  0.000000 )  
               b(3) = (  0.000000  0.000000  1.000000 )  


     PseudoPot. # 1 for C  read from file:
     ../../pseudo-potentials/C_ONCV_PBE-1.0.upf
     MD5 check sum: 40f8c33130f0afa4272e9dcc1c4fb0df
     Pseudo is Norm-conserving, Zval =  4.0
     Generated using ONCVPSP code by D. R. Hamann
     Using radial grid of  602 points,  4 beta functions with: 
                l(1) =   0
                l(2) =   0
                l(3) =   1
                l(4) =   1

     PseudoPot. # 2 for H  read from file:
     ../../pseudo-potentials/H_ONCV_PBE-1.0.upf
     MD5 check sum: 10f92816c437af099bca1a183851adc8
     Pseudo is Norm-conserving, Zval =  1.0
     Generated using ONCVPSP code by D. R. Hamann
     Using radial grid of  602 points,  2 beta functions with: 
                l(1) =   0
                l(2) =   0

     atomic species   valence    mass     pseudopotential
        C              4.00     1.00000     C ( 1.00)
        H              1.00     1.00000     H ( 1.00)

     No symmetry found



   Cartesian axes

     site n.     atom                  positions (alat units)
         1           C   tau(   1) = (   1.7536320   2.1767240   1.9939120  )
         2           C   tau(   2) = (   1.8413920   2.3040160   2.0058680  )
         3           H   tau(   3) = (   1.7975720   2.0816200   2.0224040  )
         4           H   tau(   4) = (   1.7038680   2.1647280   1.8951440  )
         5           H   tau(   5) = (   1.6664360   2.1920080   2.0601960  )
         6           H   tau(   6) = (   1.7974040   2.3968280   2.0576320  )
         7           H   tau(   7) = (   1.8788360   2.3430080   1.9072920  )
         8           H   tau(   8) = (   1.9283120   2.2716160   2.0599440  )

     number of k points=     1
                       cart. coord. in units 2pi/alat
        k(    1) = (   0.0000000   0.0000000   0.0000000), wk =   2.0000000

     Dense  grid:   161227 G-vectors     FFT dimensions: (  90,  90,  90)

     Largest allocated arrays     est. size (Mb)     dimensions
        Kohn-Sham Wavefunctions         2.15 Mb     (   20170,    7)
        NL pseudopotentials             8.62 Mb     (   20170,   28)
        Each V/rho on FFT grid         11.12 Mb     (  729000)
        Each G-vector array             1.23 Mb     (  161227)
        G-vector shells                 0.01 Mb     (    1510)
     Largest temporary arrays     est. size (Mb)     dimensions
        Auxiliary wavefunctions         4.31 Mb     (   20170,   28)
        Each subspace H/S matrix        0.01 Mb     (      28,   28)
        Each <psi_i|beta_j> matrix      0.00 Mb     (      28,    7)
        Arrays for rho mixing          88.99 Mb     (  729000,    8)

     Initial potential from superposition of free atoms
     Check: negative starting charge=   -0.000636

     starting charge   13.97327, renormalised to   14.00000

     negative rho (up, down):  6.371E-04 0.000E+00
     Starting wfc are random

     total cpu time spent up to now is        2.2 secs

     per-process dynamical memory:   141.6 Mb

     Self-consistent Calculation

     iteration #  1     ecut=    50.00 Ry     beta=0.20
     Davidson diagonalization with overlap
     ethr =  1.00E-02,  avg # of iterations =  9.0

     negative rho (up, down):  4.080E-04 0.000E+00

     total cpu time spent up to now is        5.6 secs

     total energy              =     -30.00184574 Ry
     Harris-Foulkes estimate   =     -30.22364565 Ry
     estimated scf accuracy    <       0.87277149 Ry

     iteration #  2     ecut=    50.00 Ry     beta=0.20
     Davidson diagonalization with overlap
     ethr =  6.23E-03,  avg # of iterations =  1.0

     negative rho (up, down):  1.009E-04 0.000E+00

     total cpu time spent up to now is        7.5 secs

     total energy              =     -29.78606915 Ry
     Harris-Foulkes estimate   =     -30.02498497 Ry
     estimated scf accuracy    <       0.40365395 Ry

     iteration #  3     ecut=    50.00 Ry     beta=0.20
     Davidson diagonalization with overlap
     ethr =  2.88E-03,  avg # of iterations =  2.0

     negative rho (up, down):  1.160E-04 0.000E+00

     total cpu time spent up to now is        9.6 secs

     total energy              =     -29.96359331 Ry
     Harris-Foulkes estimate   =     -29.91775662 Ry
     estimated scf accuracy    <       0.09787584 Ry

     iteration #  4     ecut=    50.00 Ry     beta=0.20
     Davidson diagonalization with overlap
     ethr =  6.99E-04,  avg # of iterations =  2.0

     negative rho (up, down):  2.296E-05 0.000E+00

     total cpu time spent up to now is       11.6 secs

     total energy              =     -29.85027230 Ry
     Harris-Foulkes estimate   =     -29.97643445 Ry
     estimated scf accuracy    <       0.29249079 Ry

     iteration #  5     ecut=    50.00 Ry     beta=0.20
     Davidson diagonalization with overlap
     ethr =  6.99E-04,  avg # of iterations =  2.0

     negative rho (up, down):  5.730E-06 0.000E+00

     total cpu time spent up to now is       13.7 secs

     total energy              =     -29.88550035 Ry
     Harris-Foulkes estimate   =     -29.88842727 Ry
     estimated scf accuracy    <       0.01009843 Ry

     iteration #  6     ecut=    50.00 Ry     beta=0.20
     Davidson diagonalization with overlap
     ethr =  7.21E-05,  avg # of iterations =  1.0

     negative rho (up, down):  2.359E-06 0.000E+00

     total cpu time spent up to now is       15.6 secs

     total energy              =     -29.88492189 Ry
     Harris-Foulkes estimate   =     -29.88626339 Ry
     estimated scf accuracy    <       0.00306983 Ry

     iteration #  7     ecut=    50.00 Ry     beta=0.20
     Davidson diagonalization with overlap
     ethr =  2.19E-05,  avg # of iterations =  2.0

     negative rho (up, down):  6.392E-08 0.000E+00

     total cpu time spent up to now is       17.7 secs

     total energy              =     -29.88585974 Ry
     Harris-Foulkes estimate   =     -29.88601236 Ry
     estimated scf accuracy    <       0.00037674 Ry

     iteration #  8     ecut=    50.00 Ry     beta=0.20
     Davidson diagonalization with overlap
     ethr =  2.69E-06,  avg # of iterations =  2.0

     negative rho (up, down):  2.084E-08 0.000E+00

     total cpu time spent up to now is       19.7 secs

     total energy              =     -29.88592096 Ry
     Harris-Foulkes estimate   =     -29.88592097 Ry
     estimated scf accuracy    <       0.00001594 Ry

     iteration #  9     ecut=    50.00 Ry     beta=0.20
     Davidson diagonalization with overlap
     ethr =  1.14E-07,  avg # of iterations =  2.0

     total cpu time spent up to now is       21.8 secs

     total energy              =     -29.88592336 Ry
     Harris-Foulkes estimate   =     -29.88592364 Ry
     estimated scf accuracy    <       0.00001011 Ry

     iteration # 10     ecut=    50.00 Ry     beta=0.20
     Davidson diagonalization with overlap
     ethr =  7.22E-08,  avg # of iterations =  2.0

     total cpu time spent up to now is       23.8 secs

     total energy              =     -29.88591941 Ry
     Harris-Foulkes estimate   =     -29.88592461 Ry
     estimated scf accuracy    <       0.00001117 Ry

     iteration # 11     ecut=    50.00 Ry     beta=0.20
     Davidson diagonalization with overlap
     ethr =  7.22E-08,  avg # of iterations =  2.0

     total cpu time spent up to now is       25.4 secs

     End of self-consistent calculation

          k = 0.0000 0.0000 0.0000 ( 20170 PWs)   bands (ev):

   -18.1207 -14.7908 -10.2989  -9.8622  -8.8540  -7.8220  -7.5070

     highest occupied level (ev):    -7.5070

!    total energy              =     -29.88592119 Ry
     Harris-Foulkes estimate   =     -29.88592126 Ry
     estimated scf accuracy    <       0.00000013 Ry

     The total energy is the sum of the following terms:

     one-electron contribution =     -87.48890120 Ry
     hartree contribution      =      45.34844963 Ry
     xc contribution           =     -11.24055528 Ry
     ewald contribution        =      23.49508566 Ry

     convergence has been achieved in  11 iterations

     Forces acting on atoms (Ry/au):

     atom    1 type  1   force =    -0.06785825    0.05010952   -0.00814132
     atom    2 type  1   force =    -0.00381212    0.02318776   -0.02669089
     atom    3 type  2   force =     0.01990907   -0.00163657    0.00039626
     atom    4 type  2   force =     0.01928050    0.00172010    0.00692488
     atom    5 type  2   force =     0.00504365   -0.01103406    0.00403204
     atom    6 type  2   force =     0.00785160   -0.05690011   -0.01836461
     atom    7 type  2   force =    -0.01119176   -0.01704068    0.02075375
     atom    8 type  2   force =     0.03077730    0.01159403    0.02108989

     Total force =     0.124263     Total SCF correction =     0.000341


     entering subroutine stress ...

          total   stress  (Ry/bohr**3)                   (kbar)     P=   -3.78
  -0.00000644   0.00000179   0.00000709         -0.95      0.26      1.04
   0.00000179  -0.00004720  -0.00000569          0.26     -6.94     -0.84
   0.00000709  -0.00000569  -0.00002349          1.04     -0.84     -3.46


     init_run     :      2.00s CPU      2.14s WALL (       1 calls)
     electrons    :     22.69s CPU     23.24s WALL (       1 calls)
     forces       :      0.97s CPU      0.98s WALL (       1 calls)
     stress       :      1.20s CPU      1.24s WALL (       1 calls)

     Called by init_run:
     wfcinit      :      0.23s CPU      0.25s WALL (       1 calls)
     potinit      :      1.41s CPU      1.49s WALL (       1 calls)

     Called by electrons:
     c_bands      :      7.33s CPU      7.42s WALL (      11 calls)
     sum_band     :      1.91s CPU      1.93s WALL (      11 calls)
     v_of_rho     :     13.42s CPU     13.82s WALL (      12 calls)
     mix_rho      :      1.07s CPU      1.16s WALL (      11 calls)

     Called by c_bands:
     init_us_2    :      0.30s CPU      0.32s WALL (      23 calls)
     regterg      :      6.76s CPU      6.84s WALL (      11 calls)

     Called by *egterg:
     h_psi        :      6.57s CPU      6.63s WALL (      39 calls)
     g_psi        :      0.08s CPU      0.08s WALL (      27 calls)
     rdiaghg      :      0.01s CPU      0.01s WALL (      38 calls)

     Called by h_psi:
     add_vuspsi   :      0.09s CPU      0.09s WALL (      39 calls)

     General routines
     calbec       :      0.12s CPU      0.13s WALL (      44 calls)
     fft          :      3.59s CPU      3.74s WALL (     139 calls)
     fftw         :      5.87s CPU      5.91s WALL (     332 calls)

     Parallel routines
     fft_scatter  :      2.25s CPU      2.32s WALL (     471 calls)

     PWSCF        :    26.90s CPU        27.65s WALL


   This run was terminated on:  16:13:20   4Jul2020            

=------------------------------------------------------------------------------=
   JOB DONE.
=------------------------------------------------------------------------------=
