
     Program PWSCF v.5.1.1 starts on  4Jul2020 at 16:12:16 

     This program is part of the open-source Quantum ESPRESSO suite
     for quantum simulation of materials; please cite
         "P. Giannozzi et al., J. Phys.:Condens. Matter 21 395502 (2009);
          URL http://www.quantum-espresso.org", 
     in publications or presentations arising from this work. More details at
     http://www.quantum-espresso.org/quote

     Parallel version (MPI), running on     1 processors
     Waiting for input...
     Reading input from standard input
Warning: card &IONS ignored
Warning: card / ignored
Warning: card &CELL ignored
Warning: card / ignored

     Current dimensions of program PWSCF are:
     Max number of different atomic species (ntypx) = 10
     Max number of k-points (npk) =  40000
     Max angular momentum in pseudopotentials (lmaxx) =  3

     gamma-point specific algorithms are used

     Subspace diagonalization in iterative solution of the eigenvalue problem:
     a serial algorithm will be used


     G-vector sticks info
     --------------------
     sticks:   dense  smooth     PW     G-vecs:    dense   smooth      PW
     Sum        5689    5689   1433               322453   322453   40339
     Tot        2845    2845    717



     bravais-lattice index     =            1
     lattice parameter (alat)  =      18.8973  a.u.
     unit-cell volume          =    6748.3346 (a.u.)^3
     number of atoms/cell      =            8
     number of atomic types    =            2
     number of electrons       =        14.00
     number of Kohn-Sham states=            7
     kinetic-energy cutoff     =      50.0000  Ry
     charge density cutoff     =     200.0000  Ry
     convergence threshold     =      1.0E-06
     mixing beta               =       0.2000
     number of iterations used =            8  plain     mixing
     Exchange-correlation      = PBE ( 1  4  3  4 0 0)

     celldm(1)=  18.897261  celldm(2)=   0.000000  celldm(3)=   0.000000
     celldm(4)=   0.000000  celldm(5)=   0.000000  celldm(6)=   0.000000

     crystal axes: (cart. coord. in units of alat)
               a(1) = (   1.000000   0.000000   0.000000 )  
               a(2) = (   0.000000   1.000000   0.000000 )  
               a(3) = (   0.000000   0.000000   1.000000 )  

     reciprocal axes: (cart. coord. in units 2 pi/alat)
               b(1) = (  1.000000  0.000000  0.000000 )  
               b(2) = (  0.000000  1.000000  0.000000 )  
               b(3) = (  0.000000  0.000000  1.000000 )  


     PseudoPot. # 1 for C  read from file:
     ../../pseudo-potentials/C_ONCV_PBE-1.0.upf
     MD5 check sum: 40f8c33130f0afa4272e9dcc1c4fb0df
     Pseudo is Norm-conserving, Zval =  4.0
     Generated using ONCVPSP code by D. R. Hamann
     Using radial grid of  602 points,  4 beta functions with: 
                l(1) =   0
                l(2) =   0
                l(3) =   1
                l(4) =   1

     PseudoPot. # 2 for H  read from file:
     ../../pseudo-potentials/H_ONCV_PBE-1.0.upf
     MD5 check sum: 10f92816c437af099bca1a183851adc8
     Pseudo is Norm-conserving, Zval =  1.0
     Generated using ONCVPSP code by D. R. Hamann
     Using radial grid of  602 points,  2 beta functions with: 
                l(1) =   0
                l(2) =   0

     atomic species   valence    mass     pseudopotential
        C              4.00     1.00000     C ( 1.00)
        H              1.00     1.00000     H ( 1.00)

     No symmetry found



   Cartesian axes

     site n.     atom                  positions (alat units)
         1           C   tau(   1) = (   1.7475480   2.1831720   2.0015080  )
         2           C   tau(   2) = (   1.8476440   2.2963080   1.9983040  )
         3           H   tau(   3) = (   1.7585880   2.1062920   2.0891480  )
         4           H   tau(   4) = (   1.7365840   2.1351720   1.9110120  )
         5           H   tau(   5) = (   1.6523120   2.2297160   2.0331000  )
         6           H   tau(   6) = (   1.7869040   2.3911400   2.0007600  )
         7           H   tau(   7) = (   1.9086760   2.3072520   1.9015440  )
         8           H   tau(   8) = (   1.9274000   2.2952440   2.0666560  )

     number of k points=     1
                       cart. coord. in units 2pi/alat
        k(    1) = (   0.0000000   0.0000000   0.0000000), wk =   2.0000000

     Dense  grid:   161227 G-vectors     FFT dimensions: (  90,  90,  90)

     Largest allocated arrays     est. size (Mb)     dimensions
        Kohn-Sham Wavefunctions         2.15 Mb     (   20170,    7)
        NL pseudopotentials             8.62 Mb     (   20170,   28)
        Each V/rho on FFT grid         11.12 Mb     (  729000)
        Each G-vector array             1.23 Mb     (  161227)
        G-vector shells                 0.01 Mb     (    1510)
     Largest temporary arrays     est. size (Mb)     dimensions
        Auxiliary wavefunctions         4.31 Mb     (   20170,   28)
        Each subspace H/S matrix        0.01 Mb     (      28,   28)
        Each <psi_i|beta_j> matrix      0.00 Mb     (      28,    7)
        Arrays for rho mixing          88.99 Mb     (  729000,    8)

     Initial potential from superposition of free atoms
     Check: negative starting charge=   -0.000640

     starting charge   13.97327, renormalised to   14.00000

     negative rho (up, down):  6.408E-04 0.000E+00
     Starting wfc are random

     total cpu time spent up to now is        2.1 secs

     per-process dynamical memory:   141.6 Mb

     Self-consistent Calculation

     iteration #  1     ecut=    50.00 Ry     beta=0.20
     Davidson diagonalization with overlap
     ethr =  1.00E-02,  avg # of iterations =  9.0

     negative rho (up, down):  4.788E-04 0.000E+00

     total cpu time spent up to now is        5.4 secs

     total energy              =     -29.97664207 Ry
     Harris-Foulkes estimate   =     -30.23433208 Ry
     estimated scf accuracy    <       0.98626868 Ry

     iteration #  2     ecut=    50.00 Ry     beta=0.20
     Davidson diagonalization with overlap
     ethr =  7.04E-03,  avg # of iterations =  1.0

     negative rho (up, down):  1.732E-04 0.000E+00

     total cpu time spent up to now is        7.2 secs

     total energy              =     -29.78570127 Ry
     Harris-Foulkes estimate   =     -30.00390154 Ry
     estimated scf accuracy    <       0.40107324 Ry

     iteration #  3     ecut=    50.00 Ry     beta=0.20
     Davidson diagonalization with overlap
     ethr =  2.86E-03,  avg # of iterations =  2.0

     negative rho (up, down):  2.940E-04 0.000E+00

     total cpu time spent up to now is        9.3 secs

     total energy              =     -29.94150807 Ry
     Harris-Foulkes estimate   =     -29.89187730 Ry
     estimated scf accuracy    <       0.07330727 Ry

     iteration #  4     ecut=    50.00 Ry     beta=0.20
     Davidson diagonalization with overlap
     ethr =  5.24E-04,  avg # of iterations =  2.0

     negative rho (up, down):  9.182E-06 0.000E+00

     total cpu time spent up to now is       11.3 secs

     total energy              =     -29.82098921 Ry
     Harris-Foulkes estimate   =     -29.96046239 Ry
     estimated scf accuracy    <       0.30041092 Ry

     iteration #  5     ecut=    50.00 Ry     beta=0.20
     Davidson diagonalization with overlap
     ethr =  5.24E-04,  avg # of iterations =  3.0

     negative rho (up, down):  2.450E-06 0.000E+00

     total cpu time spent up to now is       13.5 secs

     total energy              =     -29.86750177 Ry
     Harris-Foulkes estimate   =     -29.86744322 Ry
     estimated scf accuracy    <       0.00160575 Ry

     iteration #  6     ecut=    50.00 Ry     beta=0.20
     Davidson diagonalization with overlap
     ethr =  1.15E-05,  avg # of iterations =  2.0

     negative rho (up, down):  5.177E-07 0.000E+00

     total cpu time spent up to now is       15.5 secs

     total energy              =     -29.86683336 Ry
     Harris-Foulkes estimate   =     -29.86778906 Ry
     estimated scf accuracy    <       0.00186494 Ry

     iteration #  7     ecut=    50.00 Ry     beta=0.20
     Davidson diagonalization with overlap
     ethr =  1.15E-05,  avg # of iterations =  2.0

     total cpu time spent up to now is       17.6 secs

     total energy              =     -29.86720872 Ry
     Harris-Foulkes estimate   =     -29.86721019 Ry
     estimated scf accuracy    <       0.00003249 Ry

     iteration #  8     ecut=    50.00 Ry     beta=0.20
     Davidson diagonalization with overlap
     ethr =  2.32E-07,  avg # of iterations =  2.0

     total cpu time spent up to now is       19.7 secs

     total energy              =     -29.86721071 Ry
     Harris-Foulkes estimate   =     -29.86721904 Ry
     estimated scf accuracy    <       0.00002545 Ry

     iteration #  9     ecut=    50.00 Ry     beta=0.20
     Davidson diagonalization with overlap
     ethr =  1.82E-07,  avg # of iterations =  1.0

     total cpu time spent up to now is       21.7 secs

     total energy              =     -29.86720932 Ry
     Harris-Foulkes estimate   =     -29.86721178 Ry
     estimated scf accuracy    <       0.00000685 Ry

     iteration # 10     ecut=    50.00 Ry     beta=0.20
     Davidson diagonalization with overlap
     ethr =  4.89E-08,  avg # of iterations =  2.0

     total cpu time spent up to now is       23.5 secs

     End of self-consistent calculation

          k = 0.0000 0.0000 0.0000 ( 20170 PWs)   bands (ev):

   -18.3404 -14.7800 -10.4324 -10.2199  -8.8127  -7.6585  -7.4229

     highest occupied level (ev):    -7.4229

!    total energy              =     -29.86721025 Ry
     Harris-Foulkes estimate   =     -29.86721049 Ry
     estimated scf accuracy    <       0.00000062 Ry

     The total energy is the sum of the following terms:

     one-electron contribution =     -88.64499472 Ry
     hartree contribution      =      45.92684358 Ry
     xc contribution           =     -11.28986386 Ry
     ewald contribution        =      24.14080475 Ry

     convergence has been achieved in  10 iterations

     Forces acting on atoms (Ry/au):

     atom    1 type  1   force =    -0.01620979    0.00207883    0.15441658
     atom    2 type  1   force =    -0.00891347    0.05587205   -0.10079003
     atom    3 type  2   force =     0.01618077    0.03693924   -0.06007971
     atom    4 type  2   force =    -0.01359251   -0.05002537   -0.07724732
     atom    5 type  2   force =    -0.00437400   -0.01208394   -0.01966575
     atom    6 type  2   force =     0.03732081   -0.01562886    0.01325980
     atom    7 type  2   force =    -0.03849583   -0.01840528    0.02571481
     atom    8 type  2   force =     0.02808404    0.00125334    0.06439162

     Total force =     0.247275     Total SCF correction =     0.000419


     entering subroutine stress ...

          total   stress  (Ry/bohr**3)                   (kbar)     P=   -1.95
  -0.00001550   0.00001340   0.00002318         -2.28      1.97      3.41
   0.00001340  -0.00001609   0.00002584          1.97     -2.37      3.80
   0.00002318   0.00002584  -0.00000821          3.41      3.80     -1.21


     init_run     :      2.03s CPU      2.10s WALL (       1 calls)
     electrons    :     21.08s CPU     21.38s WALL (       1 calls)
     forces       :      1.04s CPU      1.04s WALL (       1 calls)
     stress       :      1.37s CPU      1.40s WALL (       1 calls)

     Called by init_run:
     wfcinit      :      0.23s CPU      0.24s WALL (       1 calls)
     potinit      :      1.43s CPU      1.47s WALL (       1 calls)

     Called by electrons:
     c_bands      :      6.97s CPU      7.03s WALL (      10 calls)
     sum_band     :      1.76s CPU      1.76s WALL (      10 calls)
     v_of_rho     :     12.63s CPU     12.82s WALL (      11 calls)
     mix_rho      :      0.81s CPU      0.87s WALL (      10 calls)

     Called by c_bands:
     init_us_2    :      0.28s CPU      0.28s WALL (      21 calls)
     regterg      :      6.45s CPU      6.50s WALL (      10 calls)

     Called by *egterg:
     h_psi        :      6.27s CPU      6.32s WALL (      37 calls)
     g_psi        :      0.08s CPU      0.08s WALL (      26 calls)
     rdiaghg      :      0.01s CPU      0.01s WALL (      36 calls)

     Called by h_psi:
     add_vuspsi   :      0.09s CPU      0.09s WALL (      37 calls)

     General routines
     calbec       :      0.11s CPU      0.11s WALL (      42 calls)
     fft          :      3.33s CPU      3.42s WALL (     128 calls)
     fftw         :      5.58s CPU      5.63s WALL (     312 calls)

     Parallel routines
     fft_scatter  :      2.12s CPU      2.16s WALL (     440 calls)

     PWSCF        :    25.55s CPU        25.98s WALL


   This run was terminated on:  16:12:42   4Jul2020            

=------------------------------------------------------------------------------=
   JOB DONE.
=------------------------------------------------------------------------------=
