
     Program PWSCF v.5.1.1 starts on  4Jul2020 at 16:11:39 

     This program is part of the open-source Quantum ESPRESSO suite
     for quantum simulation of materials; please cite
         "P. Giannozzi et al., J. Phys.:Condens. Matter 21 395502 (2009);
          URL http://www.quantum-espresso.org", 
     in publications or presentations arising from this work. More details at
     http://www.quantum-espresso.org/quote

     Parallel version (MPI), running on     1 processors
     Waiting for input...
     Reading input from standard input
Warning: card &IONS ignored
Warning: card / ignored
Warning: card &CELL ignored
Warning: card / ignored

     Current dimensions of program PWSCF are:
     Max number of different atomic species (ntypx) = 10
     Max number of k-points (npk) =  40000
     Max angular momentum in pseudopotentials (lmaxx) =  3

     gamma-point specific algorithms are used

     Subspace diagonalization in iterative solution of the eigenvalue problem:
     a serial algorithm will be used


     G-vector sticks info
     --------------------
     sticks:   dense  smooth     PW     G-vecs:    dense   smooth      PW
     Sum        5689    5689   1433               322453   322453   40339
     Tot        2845    2845    717



     bravais-lattice index     =            1
     lattice parameter (alat)  =      18.8973  a.u.
     unit-cell volume          =    6748.3346 (a.u.)^3
     number of atoms/cell      =            8
     number of atomic types    =            2
     number of electrons       =        14.00
     number of Kohn-Sham states=            7
     kinetic-energy cutoff     =      50.0000  Ry
     charge density cutoff     =     200.0000  Ry
     convergence threshold     =      1.0E-06
     mixing beta               =       0.2000
     number of iterations used =            8  plain     mixing
     Exchange-correlation      = PBE ( 1  4  3  4 0 0)

     celldm(1)=  18.897261  celldm(2)=   0.000000  celldm(3)=   0.000000
     celldm(4)=   0.000000  celldm(5)=   0.000000  celldm(6)=   0.000000

     crystal axes: (cart. coord. in units of alat)
               a(1) = (   1.000000   0.000000   0.000000 )  
               a(2) = (   0.000000   1.000000   0.000000 )  
               a(3) = (   0.000000   0.000000   1.000000 )  

     reciprocal axes: (cart. coord. in units 2 pi/alat)
               b(1) = (  1.000000  0.000000  0.000000 )  
               b(2) = (  0.000000  1.000000  0.000000 )  
               b(3) = (  0.000000  0.000000  1.000000 )  


     PseudoPot. # 1 for C  read from file:
     ../../pseudo-potentials/C_ONCV_PBE-1.0.upf
     MD5 check sum: 40f8c33130f0afa4272e9dcc1c4fb0df
     Pseudo is Norm-conserving, Zval =  4.0
     Generated using ONCVPSP code by D. R. Hamann
     Using radial grid of  602 points,  4 beta functions with: 
                l(1) =   0
                l(2) =   0
                l(3) =   1
                l(4) =   1

     PseudoPot. # 2 for H  read from file:
     ../../pseudo-potentials/H_ONCV_PBE-1.0.upf
     MD5 check sum: 10f92816c437af099bca1a183851adc8
     Pseudo is Norm-conserving, Zval =  1.0
     Generated using ONCVPSP code by D. R. Hamann
     Using radial grid of  602 points,  2 beta functions with: 
                l(1) =   0
                l(2) =   0

     atomic species   valence    mass     pseudopotential
        C              4.00     1.00000     C ( 1.00)
        H              1.00     1.00000     H ( 1.00)

     No symmetry found



   Cartesian axes

     site n.     atom                  positions (alat units)
         1           C   tau(   1) = (   1.7443400   2.1834120   1.9944880  )
         2           C   tau(   2) = (   1.8500160   2.2973880   2.0025120  )
         3           H   tau(   3) = (   1.6421560   2.2168840   1.9778680  )
         4           H   tau(   4) = (   1.7536040   2.1358240   2.0908200  )
         5           H   tau(   5) = (   1.7656000   2.0988480   1.9271120  )
         6           H   tau(   6) = (   1.8761640   2.3025920   2.1109400  )
         7           H   tau(   7) = (   1.8059520   2.3959680   1.9899920  )
         8           H   tau(   8) = (   1.9369560   2.2990160   1.9390560  )

     number of k points=     1
                       cart. coord. in units 2pi/alat
        k(    1) = (   0.0000000   0.0000000   0.0000000), wk =   2.0000000

     Dense  grid:   161227 G-vectors     FFT dimensions: (  90,  90,  90)

     Largest allocated arrays     est. size (Mb)     dimensions
        Kohn-Sham Wavefunctions         2.15 Mb     (   20170,    7)
        NL pseudopotentials             8.62 Mb     (   20170,   28)
        Each V/rho on FFT grid         11.12 Mb     (  729000)
        Each G-vector array             1.23 Mb     (  161227)
        G-vector shells                 0.01 Mb     (    1510)
     Largest temporary arrays     est. size (Mb)     dimensions
        Auxiliary wavefunctions         4.31 Mb     (   20170,   28)
        Each subspace H/S matrix        0.01 Mb     (      28,   28)
        Each <psi_i|beta_j> matrix      0.00 Mb     (      28,    7)
        Arrays for rho mixing          88.99 Mb     (  729000,    8)

     Initial potential from superposition of free atoms
     Check: negative starting charge=   -0.000646

     starting charge   13.97327, renormalised to   14.00000

     negative rho (up, down):  6.472E-04 0.000E+00
     Starting wfc are random

     total cpu time spent up to now is        2.2 secs

     per-process dynamical memory:   141.6 Mb

     Self-consistent Calculation

     iteration #  1     ecut=    50.00 Ry     beta=0.20
     Davidson diagonalization with overlap
     ethr =  1.00E-02,  avg # of iterations =  9.0

     negative rho (up, down):  4.609E-04 0.000E+00

     total cpu time spent up to now is        5.7 secs

     total energy              =     -30.00009992 Ry
     Harris-Foulkes estimate   =     -30.24861220 Ry
     estimated scf accuracy    <       0.96169925 Ry

     iteration #  2     ecut=    50.00 Ry     beta=0.20
     Davidson diagonalization with overlap
     ethr =  6.87E-03,  avg # of iterations =  1.0

     negative rho (up, down):  1.514E-04 0.000E+00

     total cpu time spent up to now is        7.6 secs

     total energy              =     -29.79083729 Ry
     Harris-Foulkes estimate   =     -30.02444465 Ry
     estimated scf accuracy    <       0.41445791 Ry

     iteration #  3     ecut=    50.00 Ry     beta=0.20
     Davidson diagonalization with overlap
     ethr =  2.96E-03,  avg # of iterations =  2.0

     negative rho (up, down):  2.310E-04 0.000E+00

     total cpu time spent up to now is        9.7 secs

     total energy              =     -29.96100180 Ry
     Harris-Foulkes estimate   =     -29.90626987 Ry
     estimated scf accuracy    <       0.07652021 Ry

     iteration #  4     ecut=    50.00 Ry     beta=0.20
     Davidson diagonalization with overlap
     ethr =  5.47E-04,  avg # of iterations =  2.0

     negative rho (up, down):  9.552E-06 0.000E+00

     total cpu time spent up to now is       11.8 secs

     total energy              =     -29.82490321 Ry
     Harris-Foulkes estimate   =     -29.98169684 Ry
     estimated scf accuracy    <       0.32406820 Ry

     iteration #  5     ecut=    50.00 Ry     beta=0.20
     Davidson diagonalization with overlap
     ethr =  5.47E-04,  avg # of iterations =  3.0

     negative rho (up, down):  3.037E-06 0.000E+00

     total cpu time spent up to now is       14.0 secs

     total energy              =     -29.88077454 Ry
     Harris-Foulkes estimate   =     -29.88059055 Ry
     estimated scf accuracy    <       0.00115368 Ry

     iteration #  6     ecut=    50.00 Ry     beta=0.20
     Davidson diagonalization with overlap
     ethr =  8.24E-06,  avg # of iterations =  2.0

     negative rho (up, down):  5.608E-07 0.000E+00

     total cpu time spent up to now is       16.1 secs

     total energy              =     -29.87981474 Ry
     Harris-Foulkes estimate   =     -29.88115406 Ry
     estimated scf accuracy    <       0.00245591 Ry

     iteration #  7     ecut=    50.00 Ry     beta=0.20
     Davidson diagonalization with overlap
     ethr =  8.24E-06,  avg # of iterations =  2.0

     total cpu time spent up to now is       18.3 secs

     total energy              =     -29.88034793 Ry
     Harris-Foulkes estimate   =     -29.88038622 Ry
     estimated scf accuracy    <       0.00009526 Ry

     iteration #  8     ecut=    50.00 Ry     beta=0.20
     Davidson diagonalization with overlap
     ethr =  6.80E-07,  avg # of iterations =  2.0

     total cpu time spent up to now is       20.4 secs

     total energy              =     -29.88036418 Ry
     Harris-Foulkes estimate   =     -29.88037098 Ry
     estimated scf accuracy    <       0.00001550 Ry

     iteration #  9     ecut=    50.00 Ry     beta=0.20
     Davidson diagonalization with overlap
     ethr =  1.11E-07,  avg # of iterations =  2.0

     total cpu time spent up to now is       22.5 secs

     total energy              =     -29.88036631 Ry
     Harris-Foulkes estimate   =     -29.88036664 Ry
     estimated scf accuracy    <       0.00000116 Ry

     iteration # 10     ecut=    50.00 Ry     beta=0.20
     Davidson diagonalization with overlap
     ethr =  8.32E-09,  avg # of iterations =  2.0

     total cpu time spent up to now is       24.3 secs

     End of self-consistent calculation

          k = 0.0000 0.0000 0.0000 ( 20170 PWs)   bands (ev):

   -18.1938 -14.9165 -10.2919 -10.1655  -8.6043  -7.9440  -7.5222

     highest occupied level (ev):    -7.5222

!    total energy              =     -29.88036636 Ry
     Harris-Foulkes estimate   =     -29.88036648 Ry
     estimated scf accuracy    <       0.00000029 Ry

     The total energy is the sum of the following terms:

     one-electron contribution =     -88.37289011 Ry
     hartree contribution      =      45.80209556 Ry
     xc contribution           =     -11.30640425 Ry
     ewald contribution        =      23.99683244 Ry

     convergence has been achieved in  10 iterations

     Forces acting on atoms (Ry/au):

     atom    1 type  1   force =     0.04129532   -0.00761400   -0.00740941
     atom    2 type  1   force =    -0.04193948    0.01293218    0.05261817
     atom    3 type  2   force =    -0.00517593    0.00498061   -0.00047074
     atom    4 type  2   force =    -0.02366740   -0.01443958    0.02396684
     atom    5 type  2   force =     0.00420002    0.01766734   -0.01548779
     atom    6 type  2   force =     0.02351773   -0.00232444   -0.02569871
     atom    7 type  2   force =    -0.01759093    0.01141666   -0.01606998
     atom    8 type  2   force =     0.01936067   -0.02261877   -0.01144839

     Total force =     0.106827     Total SCF correction =     0.000408


     entering subroutine stress ...

          total   stress  (Ry/bohr**3)                   (kbar)     P=   -1.91
  -0.00001121  -0.00000698  -0.00000294         -1.65     -1.03     -0.43
  -0.00000698  -0.00001492  -0.00000455         -1.03     -2.19     -0.67
  -0.00000294  -0.00000455  -0.00001285         -0.43     -0.67     -1.89


     init_run     :      2.08s CPU      2.18s WALL (       1 calls)
     electrons    :     21.85s CPU     22.14s WALL (       1 calls)
     forces       :      1.06s CPU      1.07s WALL (       1 calls)
     stress       :      1.37s CPU      1.40s WALL (       1 calls)

     Called by init_run:
     wfcinit      :      0.28s CPU      0.30s WALL (       1 calls)
     potinit      :      1.45s CPU      1.50s WALL (       1 calls)

     Called by electrons:
     c_bands      :      7.59s CPU      7.63s WALL (      10 calls)
     sum_band     :      1.84s CPU      1.85s WALL (      10 calls)
     v_of_rho     :     12.58s CPU     12.78s WALL (      11 calls)
     mix_rho      :      0.96s CPU      1.02s WALL (      10 calls)

     Called by c_bands:
     init_us_2    :      0.28s CPU      0.29s WALL (      21 calls)
     regterg      :      7.07s CPU      7.11s WALL (      10 calls)

     Called by *egterg:
     h_psi        :      6.89s CPU      6.93s WALL (      38 calls)
     g_psi        :      0.08s CPU      0.08s WALL (      27 calls)
     rdiaghg      :      0.01s CPU      0.01s WALL (      37 calls)

     Called by h_psi:
     add_vuspsi   :      0.10s CPU      0.10s WALL (      38 calls)

     General routines
     calbec       :      0.13s CPU      0.13s WALL (      43 calls)
     fft          :      3.50s CPU      3.59s WALL (     128 calls)
     fftw         :      6.04s CPU      6.06s WALL (     322 calls)

     Parallel routines
     fft_scatter  :      2.41s CPU      2.46s WALL (     450 calls)

     PWSCF        :    26.39s CPU        26.84s WALL


   This run was terminated on:  16:12: 6   4Jul2020            

=------------------------------------------------------------------------------=
   JOB DONE.
=------------------------------------------------------------------------------=
