
     Program PWSCF v.5.1.1 starts on  4Jul2020 at 16:11:37 

     This program is part of the open-source Quantum ESPRESSO suite
     for quantum simulation of materials; please cite
         "P. Giannozzi et al., J. Phys.:Condens. Matter 21 395502 (2009);
          URL http://www.quantum-espresso.org", 
     in publications or presentations arising from this work. More details at
     http://www.quantum-espresso.org/quote

     Parallel version (MPI), running on     1 processors
     Waiting for input...
     Reading input from standard input
Warning: card &IONS ignored
Warning: card / ignored
Warning: card &CELL ignored
Warning: card / ignored

     Current dimensions of program PWSCF are:
     Max number of different atomic species (ntypx) = 10
     Max number of k-points (npk) =  40000
     Max angular momentum in pseudopotentials (lmaxx) =  3

     gamma-point specific algorithms are used

     Subspace diagonalization in iterative solution of the eigenvalue problem:
     a serial algorithm will be used


     G-vector sticks info
     --------------------
     sticks:   dense  smooth     PW     G-vecs:    dense   smooth      PW
     Sum        5689    5689   1433               322453   322453   40339
     Tot        2845    2845    717



     bravais-lattice index     =            1
     lattice parameter (alat)  =      18.8973  a.u.
     unit-cell volume          =    6748.3346 (a.u.)^3
     number of atoms/cell      =            8
     number of atomic types    =            2
     number of electrons       =        14.00
     number of Kohn-Sham states=            7
     kinetic-energy cutoff     =      50.0000  Ry
     charge density cutoff     =     200.0000  Ry
     convergence threshold     =      1.0E-06
     mixing beta               =       0.2000
     number of iterations used =            8  plain     mixing
     Exchange-correlation      = PBE ( 1  4  3  4 0 0)

     celldm(1)=  18.897261  celldm(2)=   0.000000  celldm(3)=   0.000000
     celldm(4)=   0.000000  celldm(5)=   0.000000  celldm(6)=   0.000000

     crystal axes: (cart. coord. in units of alat)
               a(1) = (   1.000000   0.000000   0.000000 )  
               a(2) = (   0.000000   1.000000   0.000000 )  
               a(3) = (   0.000000   0.000000   1.000000 )  

     reciprocal axes: (cart. coord. in units 2 pi/alat)
               b(1) = (  1.000000  0.000000  0.000000 )  
               b(2) = (  0.000000  1.000000  0.000000 )  
               b(3) = (  0.000000  0.000000  1.000000 )  


     PseudoPot. # 1 for C  read from file:
     ../../pseudo-potentials/C_ONCV_PBE-1.0.upf
     MD5 check sum: 40f8c33130f0afa4272e9dcc1c4fb0df
     Pseudo is Norm-conserving, Zval =  4.0
     Generated using ONCVPSP code by D. R. Hamann
     Using radial grid of  602 points,  4 beta functions with: 
                l(1) =   0
                l(2) =   0
                l(3) =   1
                l(4) =   1

     PseudoPot. # 2 for H  read from file:
     ../../pseudo-potentials/H_ONCV_PBE-1.0.upf
     MD5 check sum: 10f92816c437af099bca1a183851adc8
     Pseudo is Norm-conserving, Zval =  1.0
     Generated using ONCVPSP code by D. R. Hamann
     Using radial grid of  602 points,  2 beta functions with: 
                l(1) =   0
                l(2) =   0

     atomic species   valence    mass     pseudopotential
        C              4.00     1.00000     C ( 1.00)
        H              1.00     1.00000     H ( 1.00)

     No symmetry found



   Cartesian axes

     site n.     atom                  positions (alat units)
         1           C   tau(   1) = (   1.7465040   2.1800080   2.0004040  )
         2           C   tau(   2) = (   1.8475560   2.3013360   1.9995200  )
         3           H   tau(   3) = (   1.6526800   2.2361280   2.0040880  )
         4           H   tau(   4) = (   1.7429240   2.1002320   2.0795040  )
         5           H   tau(   5) = (   1.7639200   2.1244680   1.9037960  )
         6           H   tau(   6) = (   1.8913480   2.2982840   2.1062040  )
         7           H   tau(   7) = (   1.8113040   2.4076080   1.9896680  )
         8           H   tau(   8) = (   1.9217720   2.2759000   1.9176320  )

     number of k points=     1
                       cart. coord. in units 2pi/alat
        k(    1) = (   0.0000000   0.0000000   0.0000000), wk =   2.0000000

     Dense  grid:   161227 G-vectors     FFT dimensions: (  90,  90,  90)

     Largest allocated arrays     est. size (Mb)     dimensions
        Kohn-Sham Wavefunctions         2.15 Mb     (   20170,    7)
        NL pseudopotentials             8.62 Mb     (   20170,   28)
        Each V/rho on FFT grid         11.12 Mb     (  729000)
        Each G-vector array             1.23 Mb     (  161227)
        G-vector shells                 0.01 Mb     (    1510)
     Largest temporary arrays     est. size (Mb)     dimensions
        Auxiliary wavefunctions         4.31 Mb     (   20170,   28)
        Each subspace H/S matrix        0.01 Mb     (      28,   28)
        Each <psi_i|beta_j> matrix      0.00 Mb     (      28,    7)
        Arrays for rho mixing          88.99 Mb     (  729000,    8)

     Initial potential from superposition of free atoms
     Check: negative starting charge=   -0.000630

     starting charge   13.97327, renormalised to   14.00000

     negative rho (up, down):  6.309E-04 0.000E+00
     Starting wfc are random

     total cpu time spent up to now is        1.8 secs

     per-process dynamical memory:   141.6 Mb

     Self-consistent Calculation

     iteration #  1     ecut=    50.00 Ry     beta=0.20
     Davidson diagonalization with overlap
     ethr =  1.00E-02,  avg # of iterations =  9.0

     negative rho (up, down):  3.989E-04 0.000E+00

     total cpu time spent up to now is        5.1 secs

     total energy              =     -29.96048923 Ry
     Harris-Foulkes estimate   =     -30.17115066 Ry
     estimated scf accuracy    <       0.83014061 Ry

     iteration #  2     ecut=    50.00 Ry     beta=0.20
     Davidson diagonalization with overlap
     ethr =  5.93E-03,  avg # of iterations =  1.0

     negative rho (up, down):  1.043E-04 0.000E+00

     total cpu time spent up to now is        7.0 secs

     total energy              =     -29.76443798 Ry
     Harris-Foulkes estimate   =     -29.98312842 Ry
     estimated scf accuracy    <       0.37703544 Ry

     iteration #  3     ecut=    50.00 Ry     beta=0.20
     Davidson diagonalization with overlap
     ethr =  2.69E-03,  avg # of iterations =  2.0

     negative rho (up, down):  1.243E-04 0.000E+00

     total cpu time spent up to now is        9.0 secs

     total energy              =     -29.92598013 Ry
     Harris-Foulkes estimate   =     -29.88687173 Ry
     estimated scf accuracy    <       0.09129703 Ry

     iteration #  4     ecut=    50.00 Ry     beta=0.20
     Davidson diagonalization with overlap
     ethr =  6.52E-04,  avg # of iterations =  2.0

     negative rho (up, down):  2.893E-05 0.000E+00

     total cpu time spent up to now is       11.1 secs

     total energy              =     -29.82505376 Ry
     Harris-Foulkes estimate   =     -29.93699322 Ry
     estimated scf accuracy    <       0.25832042 Ry

     iteration #  5     ecut=    50.00 Ry     beta=0.20
     Davidson diagonalization with overlap
     ethr =  6.52E-04,  avg # of iterations =  2.0

     negative rho (up, down):  8.723E-06 0.000E+00

     total cpu time spent up to now is       13.3 secs

     total energy              =     -29.85676419 Ry
     Harris-Foulkes estimate   =     -29.85944158 Ry
     estimated scf accuracy    <       0.00830573 Ry

     iteration #  6     ecut=    50.00 Ry     beta=0.20
     Davidson diagonalization with overlap
     ethr =  5.93E-05,  avg # of iterations =  2.0

     negative rho (up, down):  3.069E-06 0.000E+00

     total cpu time spent up to now is       15.3 secs

     total energy              =     -29.85692910 Ry
     Harris-Foulkes estimate   =     -29.85755375 Ry
     estimated scf accuracy    <       0.00170823 Ry

     iteration #  7     ecut=    50.00 Ry     beta=0.20
     Davidson diagonalization with overlap
     ethr =  1.22E-05,  avg # of iterations =  3.0

     negative rho (up, down):  2.734E-07 0.000E+00

     total cpu time spent up to now is       17.5 secs

     total energy              =     -29.85740416 Ry
     Harris-Foulkes estimate   =     -29.85755416 Ry
     estimated scf accuracy    <       0.00042207 Ry

     iteration #  8     ecut=    50.00 Ry     beta=0.20
     Davidson diagonalization with overlap
     ethr =  3.01E-06,  avg # of iterations =  2.0

     negative rho (up, down):  1.301E-08 0.000E+00

     total cpu time spent up to now is       19.5 secs

     total energy              =     -29.85742219 Ry
     Harris-Foulkes estimate   =     -29.85743821 Ry
     estimated scf accuracy    <       0.00005106 Ry

     iteration #  9     ecut=    50.00 Ry     beta=0.20
     Davidson diagonalization with overlap
     ethr =  3.65E-07,  avg # of iterations =  2.0

     total cpu time spent up to now is       21.7 secs

     total energy              =     -29.85742649 Ry
     Harris-Foulkes estimate   =     -29.85743168 Ry
     estimated scf accuracy    <       0.00001256 Ry

     iteration # 10     ecut=    50.00 Ry     beta=0.20
     Davidson diagonalization with overlap
     ethr =  8.97E-08,  avg # of iterations =  2.0

     total cpu time spent up to now is       23.9 secs

     total energy              =     -29.85742856 Ry
     Harris-Foulkes estimate   =     -29.85742962 Ry
     estimated scf accuracy    <       0.00000281 Ry

     iteration # 11     ecut=    50.00 Ry     beta=0.20
     Davidson diagonalization with overlap
     ethr =  2.01E-08,  avg # of iterations =  2.0

     total cpu time spent up to now is       25.7 secs

     End of self-consistent calculation

          k = 0.0000 0.0000 0.0000 ( 20170 PWs)   bands (ev):

   -18.0225 -14.5132 -10.4408  -9.8848  -8.8978  -7.8566  -6.9390

     highest occupied level (ev):    -6.9390

!    total energy              =     -29.85742896 Ry
     Harris-Foulkes estimate   =     -29.85742902 Ry
     estimated scf accuracy    <       0.00000040 Ry

     The total energy is the sum of the following terms:

     one-electron contribution =     -86.43860376 Ry
     hartree contribution      =      44.81777426 Ry
     xc contribution           =     -11.15229660 Ry
     ewald contribution        =      22.91569714 Ry

     convergence has been achieved in  11 iterations

     Forces acting on atoms (Ry/au):

     atom    1 type  1   force =    -0.00900750    0.02838312   -0.04428565
     atom    2 type  1   force =     0.05204626   -0.04903713    0.06455629
     atom    3 type  2   force =    -0.02813423   -0.03370738   -0.01354113
     atom    4 type  2   force =     0.02462902    0.04074607   -0.00567581
     atom    5 type  2   force =    -0.03024968    0.01747443    0.02564248
     atom    6 type  2   force =     0.01038418    0.01157724   -0.06032642
     atom    7 type  2   force =    -0.01111508   -0.04510430   -0.01120269
     atom    8 type  2   force =    -0.00855297    0.02966795    0.04483293

     Total force =     0.165967     Total SCF correction =     0.000344


     entering subroutine stress ...

          total   stress  (Ry/bohr**3)                   (kbar)     P=   -5.76
   0.00000243   0.00000760   0.00001869          0.36      1.12      2.75
   0.00000760  -0.00006649   0.00000197          1.12     -9.78      0.29
   0.00001869   0.00000197  -0.00005348          2.75      0.29     -7.87


     init_run     :      1.64s CPU      1.69s WALL (       1 calls)
     electrons    :     23.59s CPU     23.94s WALL (       1 calls)
     forces       :      1.08s CPU      1.09s WALL (       1 calls)
     stress       :      1.41s CPU      1.45s WALL (       1 calls)

     Called by init_run:
     wfcinit      :      0.16s CPU      0.17s WALL (       1 calls)
     potinit      :      1.14s CPU      1.18s WALL (       1 calls)

     Called by electrons:
     c_bands      :      7.21s CPU      7.24s WALL (      11 calls)
     sum_band     :      2.25s CPU      2.26s WALL (      11 calls)
     v_of_rho     :     13.75s CPU     14.00s WALL (      12 calls)
     mix_rho      :      1.20s CPU      1.26s WALL (      11 calls)

     Called by c_bands:
     init_us_2    :      0.30s CPU      0.31s WALL (      23 calls)
     regterg      :      6.64s CPU      6.67s WALL (      11 calls)

     Called by *egterg:
     h_psi        :      6.37s CPU      6.40s WALL (      41 calls)
     g_psi        :      0.08s CPU      0.08s WALL (      29 calls)
     rdiaghg      :      0.01s CPU      0.01s WALL (      40 calls)

     Called by h_psi:
     add_vuspsi   :      0.09s CPU      0.10s WALL (      41 calls)

     General routines
     calbec       :      0.12s CPU      0.12s WALL (      46 calls)
     fft          :      3.91s CPU      4.00s WALL (     139 calls)
     fftw         :      5.83s CPU      5.86s WALL (     334 calls)

     Parallel routines
     fft_scatter  :      2.46s CPU      2.51s WALL (     473 calls)

     PWSCF        :    27.75s CPU        28.28s WALL


   This run was terminated on:  16:12: 6   4Jul2020            

=------------------------------------------------------------------------------=
   JOB DONE.
=------------------------------------------------------------------------------=
